 Gaussian 16, Revision A.03,
 Gaussian 16:  ES64L-G16RevA.03 25-Dec-2016

 -----------------------------
 # opt freq b3lyp/6-31g(2df,p)
 -----------------------------

 -------------------
 Title Card Required
 -------------------
 Symbolic Z-matrix:
 Charge =  0 Multiplicity = 1

 SCF Done:  E(RB3LYP) =  -694.974191018     A.U. after   14 cycles
 SCF Done:  E(RB3LYP) =  -694.993305786     A.U. after   12 cycles
 SCF Done:  E(RB3LYP) =  -695.000694872     A.U. after   13 cycles
 SCF Done:  E(RB3LYP) =  -695.006352167     A.U. after   12 cycles
 SCF Done:  E(RB3LYP) =  -695.011784302     A.U. after   13 cycles
 SCF Done:  E(RB3LYP) =  -695.012094961     A.U. after   13 cycles
 SCF Done:  E(RB3LYP) =  -695.012856803     A.U. after   13 cycles
 SCF Done:  E(RB3LYP) =  -695.015223368     A.U. after   12 cycles
 SCF Done:  E(RB3LYP) =  -695.015735288     A.U. after   12 cycles
 SCF Done:  E(RB3LYP) =  -695.016288447     A.U. after   12 cycles
 SCF Done:  E(RB3LYP) =  -695.016378813     A.U. after   11 cycles
 SCF Done:  E(RB3LYP) =  -695.016420039     A.U. after    9 cycles
 SCF Done:  E(RB3LYP) =  -695.016431016     A.U. after    9 cycles
 SCF Done:  E(RB3LYP) =  -695.016435205     A.U. after    9 cycles
 SCF Done:  E(RB3LYP) =  -695.016437561     A.U. after    7 cycles
 SCF Done:  E(RB3LYP) =  -695.016438612     A.U. after    7 cycles
 SCF Done:  E(RB3LYP) =  -695.016438915     A.U. after    7 cycles
 SCF Done:  E(RB3LYP) =  -695.016438965     A.U. after    6 cycles
 Optimization completed.
    -- Stationary point found.
 Normal termination of Gaussian 16 at Tue May 23 10:51:15 2023.

 ----------------------------------------------------------------------
 #N Geom=AllCheck Guess=TCheck SCRF=Check GenChk RB3LYP/6-31G(2df,p) Fr
 eq
 ----------------------------------------------------------------------

 Structure from the checkpoint file:  "COC1qCdOrCC2CCCC1CC2qCrO.chk"
 -------------------
 Title Card Required
 -------------------
 Charge =  0 Multiplicity = 1

                         Standard orientation:
 ---------------------------------------------------------------------
 Center     Atomic      Atomic             Coordinates (Angstroms)
 Number     Number       Type             X           Y           Z
 ---------------------------------------------------------------------
      1          6           0       -3.396287   -0.583923   -0.793626
      2          8           0       -2.360628   -0.855697    0.132434
      3          6           0       -1.245874    0.038227    0.116903
      4          6           0       -1.778993    1.388711    0.596824
      5          8           0       -1.349970    2.476661    0.295710
      6          6           0       -0.521081    0.119514   -1.249262
      7          6           0        1.006497   -0.117344   -1.185701
      8          6           0        1.366495   -1.622027   -1.106494
      9          6           0        1.300102   -2.275160    0.282626
     10          6           0        0.039204   -1.961763    1.098091
     11          6           0       -0.285880   -0.450498    1.243550
     12          6           0        0.977862    0.439797    1.308987
     13          6           0        1.632239    0.769243   -0.075672
     14          6           0        3.156635    0.640511   -0.020577
     15          8           0        1.426809    2.142130   -0.414332
     16          1           0       -4.203756   -1.284351   -0.569040
     17          1           0       -3.081148   -0.734712   -1.834035
     18          1           0       -3.787343    0.440175   -0.699692
     19          1           0       -2.618604    1.283632    1.317610
     20          1           0       -0.713193    1.096735   -1.700494
     21          1           0       -0.960232   -0.626322   -1.916579
     22          1           0        1.412441    0.257407   -2.132099
     23          1           0        2.378334   -1.764898   -1.502537
     24          1           0        0.701562   -2.160670   -1.793816
     25          1           0        2.179173   -1.976649    0.863748
     26          1           0        1.384981   -3.362286    0.168163
     27          1           0        0.171951   -2.374898    2.104725
     28          1           0       -0.831282   -2.466772    0.672951
     29          1           0       -0.835435   -0.336601    2.186442
     30          1           0        1.704081   -0.051958    1.963632
     31          1           0        0.748167    1.396062    1.787693
     32          1           0        3.484918   -0.372463    0.221118
     33          1           0        3.548624    1.323139    0.739012
     34          1           0        3.588263    0.928852   -0.983687
     35          1           0        0.493294    2.370096   -0.297508
 ---------------------------------------------------------------------

 SCF Done:  E(RB3LYP) =  -695.016438965     A.U. after    1 cycles

 The electronic state is 1-A.
 Alpha  occ. eigenvalues --  -19.16530 -19.15676 -19.10722 -10.28378 -10.25160
 Alpha  occ. eigenvalues --  -10.23763 -10.22858 -10.19907 -10.18423 -10.18107
 Alpha  occ. eigenvalues --  -10.17873 -10.17838 -10.17828 -10.17825 -10.16288
 Alpha  occ. eigenvalues --   -1.07210  -1.04577  -0.99521  -0.84549  -0.78170
 Alpha  occ. eigenvalues --   -0.76933  -0.75283  -0.70787  -0.67699  -0.67176
 Alpha  occ. eigenvalues --   -0.63965  -0.61517  -0.57115  -0.54906  -0.52775
 Alpha  occ. eigenvalues --   -0.51524  -0.50406  -0.48883  -0.47285  -0.46017
 Alpha  occ. eigenvalues --   -0.45129  -0.44224  -0.43238  -0.42576  -0.41005
 Alpha  occ. eigenvalues --   -0.40974  -0.40206  -0.39912  -0.38985  -0.37575
 Alpha  occ. eigenvalues --   -0.36653  -0.36411  -0.35684  -0.33642  -0.32700
 Alpha  occ. eigenvalues --   -0.32535  -0.31890  -0.31038  -0.30430  -0.29228
 Alpha  occ. eigenvalues --   -0.28505  -0.25431  -0.24389
 Alpha virt. eigenvalues --   -0.04471   0.06958   0.08617   0.09968   0.10641
 Alpha virt. eigenvalues --    0.11274   0.12446   0.12865   0.13630   0.14248
 Alpha virt. eigenvalues --    0.14850   0.15421   0.15566   0.16019   0.16643

 Mulliken charges:
               1
     1  C   -0.263901
     2  O   -0.289140
     3  C    0.294054
     4  C    0.115012
     5  O   -0.264497
     6  C   -0.329863
     7  C   -0.021316
     8  C   -0.222486
     9  C   -0.196805
    10  C   -0.232303
    11  C   -0.043537
    12  C   -0.306372
    13  C    0.387334
    14  C   -0.428518
    15  O   -0.495612
    16  H    0.136171
    17  H    0.119745
    18  H    0.113885
    19  H    0.109338
    20  H    0.116973
    21  H    0.106806
    22  H    0.074795
    23  H    0.098274
    24  H    0.089961
    25  H    0.100224
    26  H    0.091888
    27  H    0.092456
    28  H    0.120188
    29  H    0.073287
    30  H    0.099921
    31  H    0.111129
    32  H    0.110159
    33  H    0.119576
    34  H    0.118375
    35  H    0.294800
 Sum of Mulliken charges =  -0.00000

 Dipole moment (field-independent basis, Debye):
    X=             -1.8200    Y=             -2.5900    Z=              0.0904  Tot=              3.1668
 Quadrupole moment (field-independent basis, Debye-Ang):
   XX=            -87.1041   YY=           -101.3257   ZZ=            -88.6221
   XY=             -3.5607   XZ=              2.8231   YZ=              1.9756

  Exact polarizability: 145.884  -0.072 131.104  -1.204  -0.300 116.715
 Approx polarizability: 194.176   2.485 202.611  -2.020  -4.617 181.503

                      1                      2                      3
                      A                      A                      A
 Frequencies --     83.4739               118.3121               127.0037
 Red. masses --      4.2041                 1.8864                 2.7446
 Frc consts  --      0.0173                 0.0156                 0.0261
 IR Inten    --      0.6079                 0.7987                 0.3335

                      4                      5                      6
                      A                      A                      A
 Frequencies --    153.3262               178.6472               204.8831
 Red. masses --      3.5202                 2.1224                 1.9714
 Frc consts  --      0.0488                 0.0399                 0.0488
 IR Inten    --      4.9492                 1.1462                 2.9485

                      7                      8                      9
                      A                      A                      A
 Frequencies --    218.2024               223.7678               232.4848
 Red. masses --      3.3321                 2.8337                 1.3807
 Frc consts  --      0.0935                 0.0836                 0.0440
 IR Inten    --      2.0172                 1.2619                 0.9248

                     10                     11                     12
                      A                      A                      A
 Frequencies --    262.4049               279.8971               315.4113
 Red. masses --      1.9964                 2.7910                 2.8369
 Frc consts  --      0.0810                 0.1288                 0.1663
 IR Inten    --      0.4126                 0.5501                 3.9006

                     13                     14                     15
                      A                      A                      A
 Frequencies --    326.6647               352.0784               371.1393
 Red. masses --      3.2780                 2.5580                 3.0307
 Frc consts  --      0.2061                 0.1868                 0.2460
 IR Inten    --      5.2076                 3.0753                 6.6589

                     16                     17                     18
                      A                      A                      A
 Frequencies --    384.6377               423.9103               436.2060
 Red. masses --      2.6444                 3.6134                 2.4536
 Frc consts  --      0.2305                 0.3826                 0.2751
 IR Inten    --      0.2520                 5.2971                 1.4969

                     19                     20                     21
                      A                      A                      A
 Frequencies --    454.9520               487.5618               525.1626
 Red. masses --      3.5528                 2.8875                 3.2026
 Frc consts  --      0.4333                 0.4044                 0.5204
 IR Inten    --      4.2773                 1.3342                 0.2206

                     22                     23                     24
                      A                      A                      A
 Frequencies --    541.1357               569.3737               607.2949
 Red. masses --      2.9973                 1.1754                 3.1385
 Frc consts  --      0.5171                 0.2245                 0.6820
 IR Inten    --      2.1544                56.1396                15.2179

                     25                     26                     27
                      A                      A                      A
 Frequencies --    625.2346               680.5717               696.8097
 Red. masses --      2.1376                 3.7031                 3.1284
 Frc consts  --      0.4923                 1.0106                 0.8949
 IR Inten    --      0.3944                 0.8269                16.0921

                     28                     29                     30
                      A                      A                      A
 Frequencies --    799.5903               808.5215               844.2617
 Red. masses --      2.8832                 2.8894                 1.7285
 Frc consts  --      1.0861                 1.1129                 0.7259
 IR Inten    --      2.8696                 0.5705                 0.8898

                     31                     32                     33
                      A                      A                      A
 Frequencies --    858.5018               883.4902               895.7207
 Red. masses --      2.3567                 2.3444                 2.3776
 Frc consts  --      1.0234                 1.0782                 1.1239
 IR Inten    --     10.3856                 8.9387                 2.4432

                     34                     35                     36
                      A                      A                      A
 Frequencies --    935.3591               940.7099               957.2879
 Red. masses --      2.3625                 2.3788                 2.2113
 Frc consts  --      1.2178                 1.2403                 1.1939
 IR Inten    --      1.5375                 3.5923                23.5699

                     37                     38                     39
                      A                      A                      A
 Frequencies --    966.3315               992.7675              1010.8473
 Red. masses --      1.9969                 2.2333                 2.1158
 Frc consts  --      1.0986                 1.2968                 1.2738
 IR Inten    --      8.6829                 3.1580                 1.0667

                     40                     41                     42
                      A                      A                      A
 Frequencies --   1055.4577              1067.0721              1077.9678
 Red. masses --      2.4632                 1.6630                 2.4436
 Frc consts  --      1.6167                 1.1156                 1.6730
 IR Inten    --     13.0607                 3.2773                17.1197

                     43                     44                     45
                      A                      A                      A
 Frequencies --   1090.3361              1103.1362              1117.3554
 Red. masses --      1.8683                 2.4344                 2.3305
 Frc consts  --      1.3086                 1.7454                 1.7143
 IR Inten    --      4.6953                26.1448                35.3914

                     46                     47                     48
                      A                      A                      A
 Frequencies --   1131.1666              1149.4756              1173.3584
 Red. masses --      3.2927                 1.6055                 2.4249
 Frc consts  --      2.4823                 1.2498                 1.9670
 IR Inten    --    111.7211                 8.1381                 0.5900

                     49                     50                     51
                      A                      A                      A
 Frequencies --   1181.8968              1190.6924              1217.8941
 Red. masses --      1.3053                 1.9266                 1.5240
 Frc consts  --      1.0742                 1.6093                 1.3318
 IR Inten    --      3.5683                14.5093                 8.7385

                     52                     53                     54
                      A                      A                      A
 Frequencies --   1233.8263              1236.7633              1261.3864
 Red. masses --      1.8133                 1.5477                 1.4269
 Frc consts  --      1.6264                 1.3948                 1.3377
 IR Inten    --     13.2436                 4.6305                 7.6401

                     55                     56                     57
                      A                      A                      A
 Frequencies --   1272.2421              1293.7494              1303.1181
 Red. masses --      1.3104                 1.5175                 1.5530
 Frc consts  --      1.2497                 1.4965                 1.5538
 IR Inten    --      8.5554                 3.4073                 7.3498

                     58                     59                     60
                      A                      A                      A
 Frequencies --   1324.4902              1335.5773              1359.6693
 Red. masses --      1.3569                 1.3605                 1.3403
 Frc consts  --      1.4025                 1.4299                 1.4599
 IR Inten    --      9.3011                 1.0461                 3.2425

                     61                     62                     63
                      A                      A                      A
 Frequencies --   1366.4382              1374.2271              1382.1126
 Red. masses --      1.3499                 1.3756                 1.2723
 Frc consts  --      1.4851                 1.5306                 1.4320
 IR Inten    --      0.0246                 2.3543                 5.1526

                     64                     65                     66
                      A                      A                      A
 Frequencies --   1388.7199              1399.2569              1406.7990
 Red. masses --      1.3507                 1.3739                 1.2758
 Frc consts  --      1.5347                 1.5849                 1.4876
 IR Inten    --      5.7900                 0.6051                 8.7495

                     67                     68                     69
                      A                      A                      A
 Frequencies --   1411.3755              1436.0427              1475.2541
 Red. masses --      1.3201                 1.4928                 1.0827
 Frc consts  --      1.5493                 1.8137                 1.3883
 IR Inten    --      4.4849                64.3662                 3.4416

                     70                     71                     72
                      A                      A                      A
 Frequencies --   1480.1581              1481.8818              1488.3182
 Red. masses --      1.0938                 1.0764                 1.0802
 Frc consts  --      1.4119                 1.3927                 1.4098
 IR Inten    --      1.6274                 7.3873                 4.3366

                     73                     74                     75
                      A                      A                      A
 Frequencies --   1491.5104              1493.0012              1494.3857
 Red. masses --      1.0681                 1.0779                 1.0608
 Frc consts  --      1.3999                 1.4156                 1.3958
 IR Inten    --      5.2639                 5.3593                 2.1326

                     76                     77                     78
                      A                      A                      A
 Frequencies --   1501.9431              1510.7082              1512.8958
 Red. masses --      1.0742                 1.0612                 1.0833
 Frc consts  --      1.4277                 1.4269                 1.4609
 IR Inten    --      5.1207                 7.0531                 4.9665

                     79                     80                     81
                      A                      A                      A
 Frequencies --   1808.8138              2905.5142              2989.2869
 Red. masses --     10.9399                 1.0844                 1.0405
 Frc consts  --     21.0887                 5.3939                 5.4781
 IR Inten    --    125.9409                80.6969                48.5150

                     82                     83                     84
                      A                      A                      A
 Frequencies --   3012.0967              3016.9183              3031.4431
 Red. masses --      1.0816                 1.0649                 1.0650
 Frc consts  --      5.7817                 5.7109                 5.7661
 IR Inten    --     15.4870                15.4188                19.4485

                     85                     86                     87
                      A                      A                      A
 Frequencies --   3035.0232              3042.8234              3045.0537
 Red. masses --      1.0834                 1.0675                 1.0388
 Frc consts  --      5.8798                 5.8231                 5.6750
 IR Inten    --     20.5305                39.7307                21.7302

                     88                     89                     90
                      A                      A                      A
 Frequencies --   3047.3886              3052.2978              3055.1451
 Red. masses --      1.0959                 1.0651                 1.0930
 Frc consts  --      5.9962                 5.8462                 6.0111
 IR Inten    --     28.3556                39.3641                37.9211

                     91                     92                     93
                      A                      A                      A
 Frequencies --   3062.0611              3067.5921              3087.6646
 Red. masses --      1.0631                 1.0986                 1.1023
 Frc consts  --      5.8729                 6.0911                 6.1918
 IR Inten    --     27.6528                51.6387                14.8449

                     94                     95                     96
                      A                      A                      A
 Frequencies --   3100.6812              3105.0073              3113.3217
 Red. masses --      1.1026                 1.0945                 1.1016
 Frc consts  --      6.2457                 6.2170                 6.2911
 IR Inten    --      7.2563                28.5803                19.9349

                     97                     98                     99
                      A                      A                      A
 Frequencies --   3120.2293              3131.4988              3706.1627
 Red. masses --      1.0979                 1.1004                 1.0668
 Frc consts  --      6.2980                 6.3577                 8.6338
 IR Inten    --     23.1875                23.8332               197.6822

 - Thermochemistry -
 -------------------
 Temperature   298.150 Kelvin.  Pressure   1.00000 Atm.
 Atom     1 has atomic number  6 and mass  12.00000

 Molecular mass:   212.14124 amu.
 Principal axes and moments of inertia in atomic units:
                           1         2         3
     Eigenvalues --  2076.809372997.412943908.66451
           X            0.99990  -0.00493   0.01335
           Y            0.00489   0.99998   0.00317
           Z           -0.01337  -0.00311   0.99991
 This molecule is an asymmetric top.
 Rotational symmetry number  1.
 Warning -- assumption of classical behavior for rotation
           may cause significant error
 Rotational temperatures (Kelvin)      0.04171     0.02890     0.02216
 Rotational constants (GHZ):           0.86900     0.60210     0.46173
 Zero-point vibrational energy     810958.2 (Joules/Mol)
                                  193.82366 (Kcal/Mol)
 Warning -- explicit consideration of  24 degrees of freedom as
           vibrations may cause significant error
 Vibrational temperatures:    120.10   170.22   182.73   220.60   257.03
          (Kelvin)            294.78   313.94   321.95   334.49   377.54
                              402.71   453.81   470.00   506.56   533.99
                              553.41   609.91   627.60   654.57   701.49
                              755.59   778.57   819.20   873.76   899.57
                              979.19  1002.55  1150.43  1163.28  1214.70
                             1235.19  1271.15  1288.74  1345.77  1353.47
                             1377.32  1390.34  1428.37  1454.38  1518.57
                             1535.28  1550.96  1568.75  1587.17  1607.63
                             1627.50  1653.84  1688.20  1700.49  1713.14
                             1752.28  1775.20  1779.43  1814.85  1830.47
                             1861.42  1874.90  1905.65  1921.60  1956.26
                             1966.00  1977.21  1988.55  1998.06  2013.22
                             2024.07  2030.65  2066.15  2122.56  2129.62
                             2132.10  2141.36  2145.95  2148.10  2150.09
                             2160.96  2173.57  2176.72  2602.48  4180.39
                             4300.92  4333.74  4340.67  4361.57  4366.72
                             4377.94  4381.15  4384.51  4391.58  4395.67
                             4405.62  4413.58  4442.46  4461.19  4467.41
                             4479.38  4489.31  4505.53  5332.34

 Zero-point correction=                           0.308878 (Hartree/Particle)
 Thermal correction to Energy=                    0.323253
 Thermal correction to Enthalpy=                  0.324197
 Thermal correction to Gibbs Free Energy=         0.269772
 Sum of electronic and zero-point Energies=           -694.707561
 Sum of electronic and thermal Energies=              -694.693186
 Sum of electronic and thermal Enthalpies=            -694.692242
 Sum of electronic and thermal Free Energies=         -694.746667

                     E (Thermal)             CV                S
                      KCal/Mol        Cal/Mol-Kelvin    Cal/Mol-Kelvin
 Total                  202.844             58.791            114.547
 Electronic               0.000              0.000              0.000
 Translational            0.889              2.981             41.960
 Rotational               0.889              2.981             31.565
 Vibrational            201.067             52.830             41.022
 Vibration     1          0.600              1.961              3.807
 Vibration     2          0.608              1.934              3.128
 Vibration     3          0.611              1.926              2.991
 Vibration     4          0.619              1.899              2.631
 Vibration     5          0.629              1.869              2.343
 Vibration     6          0.640              1.833              2.089
 Vibration     7          0.646              1.813              1.974
 Vibration     8          0.649              1.805              1.928
 Vibration     9          0.653              1.791              1.860
 Vibration    10          0.670              1.742              1.646
 Vibration    11          0.680              1.711              1.534
 Vibration    12          0.703              1.644              1.334
 Vibration    13          0.710              1.622              1.277
 Vibration    14          0.729              1.571              1.157
 Vibration    15          0.743              1.531              1.075
 Vibration    16          0.754              1.503              1.021
 Vibration    17          0.786              1.418              0.879
 Vibration    18          0.797              1.391              0.839
 Vibration    19          0.813              1.350              0.781
 Vibration    20          0.844              1.278              0.690
 Vibration    21          0.880              1.194              0.598
 Vibration    22          0.896              1.159              0.563
 Vibration    23          0.925              1.097              0.505
 Vibration    24          0.966              1.016              0.437

 Optimization completed.
    -- Stationary point found.
 Normal termination of Gaussian 16 at Tue May 23 15:07:59 2023.
