 Gaussian 16, Revision A.03,
 Gaussian 16:  ES64L-G16RevA.03 25-Dec-2016

 -----------------------------
 # opt freq b3lyp/6-31g(2df,p)
 -----------------------------

 -------------------
 Title Card Required
 -------------------
 Symbolic Z-matrix:
 Charge =  0 Multiplicity = 1

 SCF Done:  E(RB3LYP) =  -696.162616611     A.U. after   13 cycles
 SCF Done:  E(RB3LYP) =  -696.178646920     A.U. after   11 cycles
 SCF Done:  E(RB3LYP) =  -696.180557775     A.U. after   11 cycles
 SCF Done:  E(RB3LYP) =  -696.180911922     A.U. after   10 cycles
 SCF Done:  E(RB3LYP) =  -696.180978051     A.U. after    9 cycles
 SCF Done:  E(RB3LYP) =  -696.180997067     A.U. after    8 cycles
 SCF Done:  E(RB3LYP) =  -696.181008974     A.U. after    9 cycles
 SCF Done:  E(RB3LYP) =  -696.181020084     A.U. after    9 cycles
 SCF Done:  E(RB3LYP) =  -696.181022983     A.U. after    9 cycles
 SCF Done:  E(RB3LYP) =  -696.181037062     A.U. after    9 cycles
 SCF Done:  E(RB3LYP) =  -696.182534995     A.U. after   11 cycles
 SCF Done:  E(RB3LYP) =  -696.183069587     A.U. after   11 cycles
 SCF Done:  E(RB3LYP) =  -696.183076109     A.U. after    9 cycles
 SCF Done:  E(RB3LYP) =  -696.183077732     A.U. after    8 cycles
 SCF Done:  E(RB3LYP) =  -696.183078338     A.U. after    7 cycles
 SCF Done:  E(RB3LYP) =  -696.183078547     A.U. after    8 cycles
 SCF Done:  E(RB3LYP) =  -696.183078699     A.U. after    7 cycles
 SCF Done:  E(RB3LYP) =  -696.183078758     A.U. after    6 cycles
 SCF Done:  E(RB3LYP) =  -696.183078772     A.U. after    5 cycles
 Optimization completed.
    -- Stationary point found.
 Normal termination of Gaussian 16 at Tue May 23 12:00:10 2023.

 ----------------------------------------------------------------------
 #N Geom=AllCheck Guess=TCheck SCRF=Check GenChk RB3LYP/6-31G(2df,p) Fr
 eq
 ----------------------------------------------------------------------

 Structure from the checkpoint file:  "COC1CCqOrC1qCrCCCCdCqCrO.chk"
 -------------------
 Title Card Required
 -------------------
 Charge =  0 Multiplicity = 1

                         Standard orientation:
 ---------------------------------------------------------------------
 Center     Atomic      Atomic             Coordinates (Angstroms)
 Number     Number       Type             X           Y           Z
 ---------------------------------------------------------------------
      1          6           0        3.038149    2.707627    0.185773
      2          8           0        2.092087    1.919778   -0.503378
      3          6           0        2.319035    0.531727   -0.609100
      4          6           0        3.703614   -0.128617   -0.380083
      5          6           0        2.964489   -1.356538    0.225789
      6          8           0        2.844028   -2.475430   -0.628647
      7          6           0        1.680113   -0.462180    0.423693
      8          6           0        1.630008    0.097183    1.848444
      9          6           0        0.346073   -1.084298    0.004839
     10          6           0       -0.827650   -0.095713   -0.044237
     11          6           0       -2.108543   -0.720482   -0.629745
     12          6           0       -3.249579    0.252622   -0.719337
     13          6           0       -4.424875    0.204901   -0.082420
     14          6           0       -4.912692   -0.844781    0.868447
     15          8           0       -5.389437    1.169568   -0.235180
     16          1           0        2.674894    3.737307    0.131145
     17          1           0        4.031737    2.665908   -0.281830
     18          1           0        3.139280    2.434727    1.244644
     19          1           0        1.950465    0.268349   -1.609403
     20          1           0        4.307753    0.385273    0.370102
     21          1           0        4.329637   -0.321005   -1.255472
     22          1           0        3.384091   -1.753031    1.153731
     23          1           0        2.611714   -2.172043   -1.511839
     24          1           0        2.623858    0.368709    2.218808
     25          1           0        1.221752   -0.652589    2.535520
     26          1           0        1.000935    0.989714    1.905594
     27          1           0        0.104303   -1.912461    0.685277
     28          1           0        0.461007   -1.545649   -0.984711
     29          1           0       -0.545284    0.782819   -0.638817
     30          1           0       -1.049865    0.280985    0.960766
     31          1           0       -2.387107   -1.595218   -0.032140
     32          1           0       -1.876713   -1.107795   -1.633474
     33          1           0       -3.074386    1.109086   -1.373890
     34          1           0       -4.174283   -1.628789    1.032302
     35          1           0       -5.831747   -1.302036    0.485203
     36          1           0       -5.161998   -0.388881    1.833046
     37          1           0       -5.062317    1.836587   -0.849308
 ---------------------------------------------------------------------

 SCF Done:  E(RB3LYP) =  -696.183078772     A.U. after    1 cycles

 The electronic state is 1-A.
 Alpha  occ. eigenvalues --  -19.15443 -19.14003 -19.13840 -10.23001 -10.22992
 Alpha  occ. eigenvalues --  -10.22930 -10.22502 -10.18420 -10.18205 -10.17794
 Alpha  occ. eigenvalues --  -10.17779 -10.17406 -10.17275 -10.17162 -10.16039
 Alpha  occ. eigenvalues --   -1.04213  -1.02989  -1.02010  -0.84142  -0.79589
 Alpha  occ. eigenvalues --   -0.76209  -0.73004  -0.70840  -0.69687  -0.65707
 Alpha  occ. eigenvalues --   -0.63341  -0.61294  -0.58270  -0.56505  -0.54434
 Alpha  occ. eigenvalues --   -0.49938  -0.49444  -0.48199  -0.46624  -0.45814
 Alpha  occ. eigenvalues --   -0.44481  -0.43761  -0.42722  -0.42442  -0.41674
 Alpha  occ. eigenvalues --   -0.40675  -0.40185  -0.39155  -0.38736  -0.37587
 Alpha  occ. eigenvalues --   -0.36948  -0.36028  -0.35904  -0.34843  -0.34501
 Alpha  occ. eigenvalues --   -0.34414  -0.32762  -0.32313  -0.31718  -0.31600
 Alpha  occ. eigenvalues --   -0.28264  -0.25432  -0.23805  -0.20649
 Alpha virt. eigenvalues --    0.04861   0.06121   0.08288   0.08622   0.08654
 Alpha virt. eigenvalues --    0.10122   0.11689   0.11963   0.12716   0.13952
 Alpha virt. eigenvalues --    0.14084   0.14673   0.15090   0.15595   0.16093

 Mulliken charges:
               1
     1  C   -0.241895
     2  O   -0.261624
     3  C    0.125641
     4  C   -0.332042
     5  C    0.088383
     6  O   -0.431427
     7  C    0.249856
     8  C   -0.452932
     9  C   -0.257420
    10  C   -0.177946
    11  C   -0.247251
    12  C   -0.220783
    13  C    0.400209
    14  C   -0.457571
    15  O   -0.431643
    16  H    0.126430
    17  H    0.110839
    18  H    0.107616
    19  H    0.068043
    20  H    0.111267
    21  H    0.099170
    22  H    0.083601
    23  H    0.281735
    24  H    0.107811
    25  H    0.114300
    26  H    0.130167
    27  H    0.093753
    28  H    0.071909
    29  H    0.108431
    30  H    0.098184
    31  H    0.094433
    32  H    0.094501
    33  H    0.056092
    34  H    0.129161
    35  H    0.135216
    36  H    0.134866
    37  H    0.290921
 Sum of Mulliken charges =  -0.00000

 Dipole moment (field-independent basis, Debye):
    X=              1.2145    Y=              1.1941    Z=             -0.2646  Tot=              1.7236
 Quadrupole moment (field-independent basis, Debye-Ang):
   XX=            -96.2359   YY=            -95.3889   ZZ=            -88.5162
   XY=              5.6536   XZ=              1.7020   YZ=             -0.4454

  Exact polarizability: 173.645  -0.488 133.209  -9.306  -2.591 120.202
 Approx polarizability: 216.553  -4.257 192.534 -14.900  -3.980 188.339

                      1                      2                      3
                      A                      A                      A
 Frequencies --     23.9298                31.9212                46.4441
 Red. masses --      3.2153                 3.7748                 3.9063
 Frc consts  --      0.0011                 0.0023                 0.0050
 IR Inten    --      0.0481                 0.0660                 0.5848

                      4                      5                      6
                      A                      A                      A
 Frequencies --     69.1188                76.6724                93.0424
 Red. masses --      2.8320                 3.2627                 3.1496
 Frc consts  --      0.0080                 0.0113                 0.0161
 IR Inten    --      2.3131                 0.2265                 1.9912

                      7                      8                      9
                      A                      A                      A
 Frequencies --    118.8393               120.8729               147.0277
 Red. masses --      1.9133                 2.3504                 1.4109
 Frc consts  --      0.0159                 0.0202                 0.0180
 IR Inten    --      1.0816                 2.6619                 0.5613

                     10                     11                     12
                      A                      A                      A
 Frequencies --    185.1985               209.8550               213.0748
 Red. masses --      1.4521                 3.0205                 1.6051
 Frc consts  --      0.0293                 0.0784                 0.0429
 IR Inten    --      0.8276                 0.4284                 2.1862

                     13                     14                     15
                      A                      A                      A
 Frequencies --    229.9389               259.4476               262.9464
 Red. masses --      2.7654                 1.3336                 1.2947
 Frc consts  --      0.0861                 0.0529                 0.0527
 IR Inten    --      7.2596                76.7487                39.6585

                     16                     17                     18
                      A                      A                      A
 Frequencies --    276.3626               297.2771               329.6831
 Red. masses --      2.3854                 2.7546                 2.7514
 Frc consts  --      0.1073                 0.1434                 0.1762
 IR Inten    --      0.1413                 1.5000                 0.8682

                     19                     20                     21
                      A                      A                      A
 Frequencies --    337.9734               392.7161               420.1928
 Red. masses --      3.0298                 2.8172                 2.4432
 Frc consts  --      0.2039                 0.2560                 0.2542
 IR Inten    --      3.3560                 9.6759                20.5913

                     22                     23                     24
                      A                      A                      A
 Frequencies --    436.2381               448.7907               467.8814
 Red. masses --      1.2742                 2.5810                 2.7841
 Frc consts  --      0.1429                 0.3063                 0.3591
 IR Inten    --     71.1494                 5.5941                 8.1785

                     25                     26                     27
                      A                      A                      A
 Frequencies --    504.7727               526.2445               552.5654
 Red. masses --      2.3304                 3.0436                 2.9533
 Frc consts  --      0.3498                 0.4966                 0.5313
 IR Inten    --      1.3799                 1.3636                 8.5667

                     28                     29                     30
                      A                      A                      A
 Frequencies --    605.0656               664.4399               720.8121
 Red. masses --      2.6741                 3.4210                 2.3730
 Frc consts  --      0.5768                 0.8898                 0.7264
 IR Inten    --      2.6764                 4.0029                 3.9114

                     31                     32                     33
                      A                      A                      A
 Frequencies --    742.1065               801.6268               835.6671
 Red. masses --      1.3015                 1.8935                 2.2556
 Frc consts  --      0.4223                 0.7169                 0.9280
 IR Inten    --      2.0259                 5.6190                17.7957

                     34                     35                     36
                      A                      A                      A
 Frequencies --    850.0917               860.8272               892.4428
 Red. masses --      1.5667                 2.0371                 2.1225
 Frc consts  --      0.6671                 0.8894                 0.9960
 IR Inten    --     16.8832                 6.0718                 3.4659

                     37                     38                     39
                      A                      A                      A
 Frequencies --    941.1733               974.7733               982.7189
 Red. masses --      2.5006                 1.8107                 2.3747
 Frc consts  --      1.3051                 1.0137                 1.3512
 IR Inten    --      3.7479                 3.8528                 4.8314

                     40                     41                     42
                      A                      A                      A
 Frequencies --    990.6495              1006.4850              1023.6476
 Red. masses --      2.6276                 1.6656                 2.4592
 Frc consts  --      1.5193                 0.9941                 1.5183
 IR Inten    --     27.2870                16.8151                 7.7095

                     43                     44                     45
                      A                      A                      A
 Frequencies --   1034.3720              1039.4659              1067.6091
 Red. masses --      2.3310                 2.6281                 1.5111
 Frc consts  --      1.4694                 1.6731                 1.0148
 IR Inten    --     14.9721                 6.0688                 0.2897

                     46                     47                     48
                      A                      A                      A
 Frequencies --   1078.7919              1088.7598              1126.0037
 Red. masses --      2.3472                 1.8991                 1.7452
 Frc consts  --      1.6095                 1.3264                 1.3037
 IR Inten    --     14.0416                38.6805               153.5097

                     49                     50                     51
                      A                      A                      A
 Frequencies --   1141.5237              1153.0983              1170.1138
 Red. masses --      2.0769                 2.0739                 1.7809
 Frc consts  --      1.5946                 1.6247                 1.4366
 IR Inten    --      6.4079                35.3476                12.1000

                     52                     53                     54
                      A                      A                      A
 Frequencies --   1180.0619              1204.4688              1221.9380
 Red. masses --      1.6504                 1.7281                 1.6236
 Frc consts  --      1.3541                 1.4771                 1.4283
 IR Inten    --     12.9095                53.7137               191.7368

                     55                     56                     57
                      A                      A                      A
 Frequencies --   1225.7551              1229.1199              1252.3253
 Red. masses --      1.4953                 1.9009                 1.4808
 Frc consts  --      1.3237                 1.6920                 1.3683
 IR Inten    --     12.9679                 3.6114                20.2492

                     58                     59                     60
                      A                      A                      A
 Frequencies --   1265.0654              1272.8043              1287.0994
 Red. masses --      1.7793                 1.4429                 1.5407
 Frc consts  --      1.6777                 1.3772                 1.5038
 IR Inten    --     42.3107                22.9575                 4.0730

                     61                     62                     63
                      A                      A                      A
 Frequencies --   1291.0813              1313.2597              1322.7026
 Red. masses --      1.6509                 1.5002                 1.3117
 Frc consts  --      1.6213                 1.5244                 1.3521
 IR Inten    --     18.3872                 5.9842                 8.6524

                     64                     65                     66
                      A                      A                      A
 Frequencies --   1339.2487              1354.1353              1389.3819
 Red. masses --      1.2602                 1.4704                 1.5034
 Frc consts  --      1.3317                 1.5886                 1.7099
 IR Inten    --      4.0497                 2.5215                 3.5027

                     67                     68                     69
                      A                      A                      A
 Frequencies --   1401.3698              1403.5054              1416.9500
 Red. masses --      1.2470                 1.2084                 1.2259
 Frc consts  --      1.4429                 1.4024                 1.4501
 IR Inten    --     13.0326                 1.5451                 7.4826

                     70                     71                     72
                      A                      A                      A
 Frequencies --   1435.4104              1448.6159              1472.1627
 Red. masses --      1.1968                 1.7257                 1.0462
 Frc consts  --      1.4529                 2.1336                 1.3359
 IR Inten    --     41.5916                 7.9825                 3.8731

                     73                     74                     75
                      A                      A                      A
 Frequencies --   1475.3865              1476.8867              1478.7416
 Red. masses --      1.0827                 1.0963                 1.1087
 Frc consts  --      1.3886                 1.4088                 1.4284
 IR Inten    --      1.3169                 0.0495                 2.0490

                     76                     77                     78
                      A                      A                      A
 Frequencies --   1482.3411              1489.9387              1491.1684
 Red. masses --      1.1418                 1.0561                 1.0702
 Frc consts  --      1.4782                 1.3813                 1.4021
 IR Inten    --      0.7496                 4.1588                 2.0685

                     79                     80                     81
                      A                      A                      A
 Frequencies --   1499.4656              1505.2635              1506.5294
 Red. masses --      1.0629                 1.0613                 1.0856
 Frc consts  --      1.4081                 1.4168                 1.4518
 IR Inten    --      3.8850                 2.0161                 6.0415

                     82                     83                     84
                      A                      A                      A
 Frequencies --   1514.3283              1749.6179              2990.0309
 Red. masses --      1.0550                 6.8952                 1.0695
 Frc consts  --      1.4255                12.4360                 5.6338
 IR Inten    --     19.2038               132.9004                28.5976

                     85                     86                     87
                      A                      A                      A
 Frequencies --   2993.4167              3004.6737              3009.8519
 Red. masses --      1.0374                 1.0720                 1.0694
 Frc consts  --      5.4769                 5.7024                 5.7079
 IR Inten    --     65.8122                 9.0105                36.2169

                     88                     89                     90
                      A                      A                      A
 Frequencies --   3027.0739              3030.0704              3036.4591
 Red. masses --      1.0619                 1.0385                 1.0973
 Frc consts  --      5.7330                 5.6178                 5.9611
 IR Inten    --     24.5856                12.7729                10.1264

                     91                     92                     93
                      A                      A                      A
 Frequencies --   3038.2661              3047.7119              3057.0944
 Red. masses --      1.0406                 1.1021                 1.0885
 Frc consts  --      5.6595                 6.0316                 5.9935
 IR Inten    --     23.7453                47.8569                13.7792

                     94                     95                     96
                      A                      A                      A
 Frequencies --   3064.0790              3075.5199              3077.1957
 Red. masses --      1.0622                 1.0920                 1.0961
 Frc consts  --      5.8759                 6.0857                 6.1153
 IR Inten    --     30.7564                20.5586                61.3512

                     97                     98                     99
                      A                      A                      A
 Frequencies --   3087.7389              3091.5388              3096.2273
 Red. masses --      1.0992                 1.0999                 1.0877
 Frc consts  --      6.1746                 6.1939                 6.1436
 IR Inten    --     14.5223                35.7275                45.5294

                    100                    101                    102
                      A                      A                      A
 Frequencies --   3107.7596              3110.8735              3122.8520
 Red. masses --      1.0981                 1.1001                 1.1038
 Frc consts  --      6.2488                 6.2724                 6.3421
 IR Inten    --     32.1074                20.6767                22.2686

                    103                    104                    105
                      A                      A                      A
 Frequencies --   3154.4441              3802.7557              3818.9937
 Red. masses --      1.0969                 1.0651                 1.0660
 Frc consts  --      6.4305                 9.0750                 9.1606
 IR Inten    --     17.1139                21.7011                12.8194

 - Thermochemistry -
 -------------------
 Temperature   298.150 Kelvin.  Pressure   1.00000 Atm.
 Atom     1 has atomic number  6 and mass  12.00000

 Molecular mass:   214.15689 amu.
 Principal axes and moments of inertia in atomic units:
                           1         2         3
     Eigenvalues --  1788.986437987.592048925.18118
           X            0.99988   0.01523   0.00054
           Y           -0.01523   0.99988   0.00359
           Z           -0.00049  -0.00360   0.99999
 This molecule is an asymmetric top.
 Rotational symmetry number  1.
 Warning -- assumption of classical behavior for rotation
           may cause significant error
 Rotational temperatures (Kelvin)      0.04842     0.01084     0.00970
 Rotational constants (GHZ):           1.00881     0.22594     0.20221
 Zero-point vibrational energy     856000.2 (Joules/Mol)
                                  204.58895 (Kcal/Mol)
 Warning -- explicit consideration of  28 degrees of freedom as
           vibrations may cause significant error
 Vibrational temperatures:     34.43    45.93    66.82    99.45   110.31
          (Kelvin)            133.87   170.98   173.91   211.54   266.46
                              301.93   306.57   330.83   373.29   378.32
                              397.62   427.72   474.34   486.27   565.03
                              604.56   627.65   645.71   673.18   726.26
                              757.15   795.02   870.55   955.98  1037.09
                             1067.73  1153.36  1202.34  1223.09  1238.54
                             1284.03  1354.14  1402.48  1413.91  1425.32
                             1448.11  1472.80  1488.23  1495.56  1536.05
                             1552.14  1566.48  1620.07  1642.40  1659.05
                             1683.53  1697.85  1732.96  1758.10  1763.59
                             1768.43  1801.82  1820.15  1831.28  1851.85
                             1857.58  1889.49  1903.07  1926.88  1948.30
                             1999.01  2016.26  2019.33  2038.68  2065.24
                             2084.24  2118.11  2122.75  2124.91  2127.58
                             2132.76  2143.69  2145.46  2157.40  2165.74
                             2167.56  2178.78  2517.31  4301.99  4306.86
                             4323.06  4330.51  4355.28  4359.60  4368.79
                             4371.39  4384.98  4398.48  4408.53  4424.99
                             4427.40  4442.57  4448.03  4454.78  4471.37
                             4475.85  4493.09  4538.54  5471.32  5494.68

 Zero-point correction=                           0.326033 (Hartree/Particle)
 Thermal correction to Energy=                    0.344170
 Thermal correction to Enthalpy=                  0.345114
 Thermal correction to Gibbs Free Energy=         0.278643
 Sum of electronic and zero-point Energies=           -695.857046
 Sum of electronic and thermal Energies=              -695.838909
 Sum of electronic and thermal Enthalpies=            -695.837964
 Sum of electronic and thermal Free Energies=         -695.904436

                     E (Thermal)             CV                S
                      KCal/Mol        Cal/Mol-Kelvin    Cal/Mol-Kelvin
 Total                  215.970             66.580            139.900
 Electronic               0.000              0.000              0.000
 Translational            0.889              2.981             41.988
 Rotational               0.889              2.981             33.211
 Vibrational            214.193             60.619             64.701
 Vibration     1          0.593              1.985              6.278
 Vibration     2          0.594              1.983              5.706
 Vibration     3          0.595              1.979              4.963
 Vibration     4          0.598              1.969              4.178
 Vibration     5          0.599              1.965              3.974
 Vibration     6          0.602              1.954              3.595
 Vibration     7          0.609              1.934              3.119
 Vibration     8          0.609              1.932              3.086
 Vibration     9          0.617              1.906              2.710
 Vibration    10          0.631              1.860              2.275
 Vibration    11          0.642              1.826              2.045
 Vibration    12          0.644              1.821              2.017
 Vibration    13          0.652              1.795              1.879
 Vibration    14          0.668              1.747              1.665
 Vibration    15          0.670              1.741              1.642
 Vibration    16          0.678              1.717              1.556
 Vibration    17          0.691              1.679              1.432
 Vibration    18          0.712              1.616              1.262
 Vibration    19          0.718              1.600              1.222
 Vibration    20          0.760              1.486              0.990
 Vibration    21          0.783              1.426              0.891
 Vibration    22          0.797              1.391              0.839
 Vibration    23          0.808              1.364              0.799
 Vibration    24          0.825              1.321              0.744
 Vibration    25          0.860              1.239              0.646
 Vibration    26          0.881              1.192              0.596
 Vibration    27          0.908              1.134              0.539
 Vibration    28          0.964              1.021              0.441

 Optimization completed.
    -- Stationary point found.
 Normal termination of Gaussian 16 at Tue May 23 14:55:51 2023.
