 Gaussian 16, Revision A.03,
 Gaussian 16:  ES64L-G16RevA.03 25-Dec-2016

 -----------------------------
 # opt freq b3lyp/6-31g(2df,p)
 -----------------------------

 -------------------
 Title Card Required
 -------------------
 Symbolic Z-matrix:
 Charge =  0 Multiplicity = 1

 SCF Done:  E(RB3LYP) =  -668.993284496     A.U. after   29 cycles
 SCF Done:  E(RB3LYP) =  -661.742132025     A.U. after   28 cycles
 SCF Done:  E(RB3LYP) =  -669.084162190     A.U. after   22 cycles
 SCF Done:  E(RB3LYP) =  -669.172251991     A.U. after   19 cycles
 SCF Done:  E(RB3LYP) =  -669.199236890     A.U. after   18 cycles
 SCF Done:  E(RB3LYP) =  -669.243948744     A.U. after   19 cycles
 SCF Done:  E(RB3LYP) =  -669.357157093     A.U. after   18 cycles
 SCF Done:  E(RB3LYP) =  -669.429558543     A.U. after   18 cycles
 SCF Done:  E(RB3LYP) =  -669.466241903     A.U. after   18 cycles
 SCF Done:  E(RB3LYP) =  -669.482150236     A.U. after   19 cycles
 SCF Done:  E(RB3LYP) =  -669.793667664     A.U. after    8 cycles
 SCF Done:  E(RB3LYP) =  -669.793668543     A.U. after    9 cycles
 SCF Done:  E(RB3LYP) =  -669.793670130     A.U. after    8 cycles
 SCF Done:  E(RB3LYP) =  -669.793671322     A.U. after   10 cycles
 SCF Done:  E(RB3LYP) =  -669.793672449     A.U. after    9 cycles
 SCF Done:  E(RB3LYP) =  -669.793672745     A.U. after    8 cycles
 SCF Done:  E(RB3LYP) =  -669.793672783     A.U. after    7 cycles
 SCF Done:  E(RB3LYP) =  -669.793672810     A.U. after    7 cycles
 SCF Done:  E(RB3LYP) =  -669.793672827     A.U. after    7 cycles
 Optimization completed.
    -- Stationary point found.
 Normal termination of Gaussian 16 at Tue May 30 03:32:26 2023.

 ----------------------------------------------------------------------
 #N Geom=AllCheck Guess=TCheck SCRF=Check GenChk RB3LYP/6-31G(2df,p) Fr
 eq
 ----------------------------------------------------------------------

 Structure from the checkpoint file:  "COC1dC2CdCCdCdCdCCdCNdC2CdC1.chk"
 -------------------
 Title Card Required
 -------------------
 Charge =  0 Multiplicity = 1

                         Standard orientation:
 ---------------------------------------------------------------------
 Center     Atomic      Atomic             Coordinates (Angstroms)
 Number     Number       Type             X           Y           Z
 ---------------------------------------------------------------------
      1          6           0       -0.400403   -2.313062   -1.176364
      2          8           0       -1.682508   -1.695092   -1.284918
      3          6           0       -2.070028   -0.840377   -0.336802
      4          6           0       -1.370412   -0.138900    0.816596
      5          6           0       -1.557127    1.560338    0.586610
      6          6           0       -0.815556    1.857839   -0.630826
      7          6           0        0.380421    2.483783   -0.472364
      8          6           0        1.571638    1.903796   -0.961971
      9          6           0        2.506868    1.134376   -0.816394
     10          6           0        3.450430    0.158915   -0.456889
     11          6           0        3.216057   -0.888855    0.390910
     12          6           0        2.075230   -1.350904    1.136538
     13          7           0        0.911588   -0.786971    1.272599
     14          6           0       -0.165405   -0.294548    1.537727
     15          6           0       -2.682529    0.676852    0.944203
     16          6           0       -3.222475   -0.154269   -0.201905
     17          1           0       -0.334958   -3.007266   -2.015201
     18          1           0       -0.304323   -2.868080   -0.237658
     19          1           0        0.404267   -1.576562   -1.248239
     20          1           0       -1.173900    2.097560    1.454516
     21          1           0       -0.979574    1.217347   -1.490187
     22          1           0        0.506975    3.183140    0.354861
     23          1           0        4.462335    0.259172   -0.841718
     24          1           0        4.073745   -1.538397    0.553891
     25          1           0        2.191941   -2.306355    1.644469
     26          1           0       -3.194135    0.838354    1.888095
     27          1           0       -4.073698    0.000715   -0.846087
 ---------------------------------------------------------------------

 SCF Done:  E(RB3LYP) =  -669.793672827     A.U. after    1 cycles

 The electronic state is 1-A.
 Alpha  occ. eigenvalues --  -19.18263 -14.38704 -10.25238 -10.24112 -10.24037
 Alpha  occ. eigenvalues --  -10.23648 -10.23177 -10.22745 -10.22217 -10.20775
 Alpha  occ. eigenvalues --  -10.20193 -10.20004 -10.19388 -10.17873 -10.17863
 Alpha  occ. eigenvalues --  -10.17555  -1.07653  -0.96774  -0.91974  -0.82059
 Alpha  occ. eigenvalues --   -0.80716  -0.76529  -0.75908  -0.72315  -0.69495
 Alpha  occ. eigenvalues --   -0.67191  -0.64005  -0.60942  -0.56749  -0.56319
 Alpha  occ. eigenvalues --   -0.54155  -0.52531  -0.50649  -0.49900  -0.48341
 Alpha  occ. eigenvalues --   -0.46883  -0.45525  -0.44468  -0.43159  -0.41545
 Alpha  occ. eigenvalues --   -0.40737  -0.40266  -0.38773  -0.38065  -0.36985
 Alpha  occ. eigenvalues --   -0.35813  -0.35148  -0.33347  -0.32499  -0.30874
 Alpha  occ. eigenvalues --   -0.28261  -0.25366  -0.22101  -0.19529  -0.17960
 Alpha virt. eigenvalues --   -0.05834  -0.04801  -0.00150   0.02590   0.04660
 Alpha virt. eigenvalues --    0.05254   0.08763   0.09631   0.11135   0.11912
 Alpha virt. eigenvalues --    0.12655   0.13155   0.13459   0.14681   0.15384

 Mulliken charges:
               1
     1  C   -0.261688
     2  O   -0.256422
     3  C    0.337199
     4  C    0.157276
     5  C   -0.007704
     6  C   -0.104396
     7  C   -0.185817
     8  C   -0.207427
     9  C    0.322620
    10  C   -0.338899
    11  C   -0.001581
    12  C   -0.140071
    13  N    0.030613
    14  C   -0.169002
    15  C   -0.205382
    16  C   -0.296137
    17  H    0.137205
    18  H    0.128483
    19  H    0.156411
    20  H    0.124418
    21  H    0.121228
    22  H    0.114543
    23  H    0.106718
    24  H    0.098348
    25  H    0.111849
    26  H    0.110672
    27  H    0.116942
 Sum of Mulliken charges =  -0.00000

 Dipole moment (field-independent basis, Debye):
    X=             -0.4910    Y=             -1.0678    Z=              0.8038  Tot=              1.4238
 Quadrupole moment (field-independent basis, Debye-Ang):
   XX=            -89.0111   YY=            -86.9957   ZZ=            -93.2777
   XY=             -7.6293   XZ=             -1.2824   YZ=              3.0294

  Exact polarizability: 238.572 -18.746 154.575 -16.230 -10.828 116.324
 Approx polarizability: 479.605 -49.975 297.833 -64.349 -42.860 225.200

                      1                      2                      3
                      A                      A                      A
 Frequencies --     23.2732                70.9696                88.4075
 Red. masses --      3.0989                 5.4776                 4.9174
 Frc consts  --      0.0010                 0.0163                 0.0226
 IR Inten    --      1.5092                 1.0360                 5.3617

                      4                      5                      6
                      A                      A                      A
 Frequencies --    117.4647               128.1747               164.8594
 Red. masses --      4.7155                 6.4393                 3.9276
 Frc consts  --      0.0383                 0.0623                 0.0629
 IR Inten    --      5.3313                 4.5111                 3.5236

                      7                      8                      9
                      A                      A                      A
 Frequencies --    179.5790               196.4276               209.5258
 Red. masses --      2.9863                 5.0186                 1.2491
 Frc consts  --      0.0567                 0.1141                 0.0323
 IR Inten    --      2.9189                 2.7826                 4.7828

                     10                     11                     12
                      A                      A                      A
 Frequencies --    217.8752               280.2447               310.7218
 Red. masses --      2.7935                 4.8368                 5.4670
 Frc consts  --      0.0781                 0.2238                 0.3110
 IR Inten    --      8.2567                 6.7840                 6.6054

                     13                     14                     15
                      A                      A                      A
 Frequencies --    325.1302               352.9485               389.6260
 Red. masses --      5.0315                 4.8495                 3.9680
 Frc consts  --      0.3134                 0.3559                 0.3549
 IR Inten    --      6.4664                 3.2097                48.5090

                     16                     17                     18
                      A                      A                      A
 Frequencies --    403.4143               415.6066               479.4888
 Red. masses --      5.8607                 5.0083                 5.4824
 Frc consts  --      0.5620                 0.5097                 0.7426
 IR Inten    --      1.0486                 5.1103                 2.1278

                     19                     20                     21
                      A                      A                      A
 Frequencies --    495.8304               512.5718               534.0313
 Red. masses --      4.5931                 5.8637                 6.8610
 Frc consts  --      0.6653                 0.9077                 1.1528
 IR Inten    --      1.2526                32.5195                16.7235

                     22                     23                     24
                      A                      A                      A
 Frequencies --    587.3852               612.4905               625.9741
 Red. masses --      4.2089                 2.7859                 4.1323
 Frc consts  --      0.8556                 0.6158                 0.9540
 IR Inten    --      0.1437                16.0342                 2.3107

                     25                     26                     27
                      A                      A                      A
 Frequencies --    666.9759               688.1714               721.6177
 Red. masses --      4.2777                 5.4124                 1.4130
 Frc consts  --      1.1212                 1.5102                 0.4335
 IR Inten    --      6.8630                67.8865                42.2384

                     28                     29                     30
                      A                      A                      A
 Frequencies --    760.4404               778.4180               782.6643
 Red. masses --      2.0833                 1.5625                 4.0762
 Frc consts  --      0.7098                 0.5578                 1.4712
 IR Inten    --     75.5081                12.1695                 6.3056

                     31                     32                     33
                      A                      A                      A
 Frequencies --    815.5053               858.1544               891.5816
 Red. masses --      1.9868                 4.3863                 4.7864
 Frc consts  --      0.7785                 1.9032                 2.2417
 IR Inten    --     79.0862                 6.9889                 7.0163

                     34                     35                     36
                      A                      A                      A
 Frequencies --    930.3706               962.2843               964.4884
 Red. masses --      2.5185                 1.8737                 1.5704
 Frc consts  --      1.2844                 1.0223                 0.8607
 IR Inten    --      9.9920                 3.0160                17.6209

                     37                     38                     39
                      A                      A                      A
 Frequencies --    972.7950              1029.8557              1032.9351
 Red. masses --      1.4729                 1.8051                 1.9462
 Frc consts  --      0.8212                 1.1280                 1.2234
 IR Inten    --      6.3868                 4.1495                 2.7474

                     40                     41                     42
                      A                      A                      A
 Frequencies --   1062.0955              1075.2980              1149.9504
 Red. masses --      1.9022                 1.6789                 2.9298
 Frc consts  --      1.2643                 1.1438                 2.2827
 IR Inten    --     48.0277                10.8349                29.1394

                     43                     44                     45
                      A                      A                      A
 Frequencies --   1170.9809              1189.4135              1207.3654
 Red. masses --      1.2688                 1.7088                 2.1695
 Frc consts  --      1.0251                 1.4243                 1.8633
 IR Inten    --      0.3315                14.5279                13.4771

                     46                     47                     48
                      A                      A                      A
 Frequencies --   1221.6083              1235.7479              1260.4435
 Red. masses --      1.7125                 1.6565                 1.4242
 Frc consts  --      1.5057                 1.4904                 1.3331
 IR Inten    --      3.4809                 2.6867                10.3242

                     49                     50                     51
                      A                      A                      A
 Frequencies --   1283.1368              1303.2975              1315.0627
 Red. masses --      1.8566                 1.8383                 1.9356
 Frc consts  --      1.8010                 1.8397                 1.9722
 IR Inten    --     89.1966                31.7662                48.1355

                     52                     53                     54
                      A                      A                      A
 Frequencies --   1318.6511              1366.2581              1428.3416
 Red. masses --      1.5172                 1.8531                 1.6163
 Frc consts  --      1.5544                 2.0380                 1.9429
 IR Inten    --     19.0747                 8.5543                23.1885

                     55                     56                     57
                      A                      A                      A
 Frequencies --   1458.5293              1480.4388              1494.3818
 Red. masses --      1.8735                 1.1900                 1.0470
 Frc consts  --      2.3482                 1.5366                 1.3777
 IR Inten    --      3.2700                 5.7430                19.3233

                     58                     59                     60
                      A                      A                      A
 Frequencies --   1498.5047              1503.3064              1573.6874
 Red. masses --      1.3117                 2.1857                 4.1457
 Frc consts  --      1.7355                 2.9103                 6.0490
 IR Inten    --     27.1722                21.2230                24.8106

                     61                     62                     63
                      A                      A                      A
 Frequencies --   1603.5189              1682.3547              1989.4000
 Red. masses --      5.2406                 7.5099                11.8662
 Frc consts  --      7.9393                12.5233                27.6699
 IR Inten    --     33.7676               138.2348               286.9412

                     64                     65                     66
                      A                      A                      A
 Frequencies --   2230.8696              3035.8079              3105.9474
 Red. masses --     11.7890                 1.0319                 1.0856
 Frc consts  --     34.5680                 5.6033                 6.1703
 IR Inten    --     12.6058                25.5150                 9.6315

                     67                     68                     69
                      A                      A                      A
 Frequencies --   3115.6486              3121.2037              3123.4743
 Red. masses --      1.1044                 1.0847                 1.0825
 Frc consts  --      6.3167                 6.2257                 6.2222
 IR Inten    --     14.1898                10.2991                11.2716

                     70                     71                     72
                      A                      A                      A
 Frequencies --   3137.5135              3145.2194              3157.5341
 Red. masses --      1.0833                 1.1044                 1.0906
 Frc consts  --      6.2831                 6.4367                 6.4064
 IR Inten    --      5.2278                19.5067                42.5646

                     73                     74                     75
                      A                      A                      A
 Frequencies --   3163.5921              3189.0537              3252.6876
 Red. masses --      1.0910                 1.0887                 1.0995
 Frc consts  --      6.4332                 6.5234                 6.8539
 IR Inten    --     21.2074                 3.2231                 2.1513

 - Thermochemistry -
 -------------------
 Temperature   298.150 Kelvin.  Pressure   1.00000 Atm.
 Atom     1 has atomic number  6 and mass  12.00000

 Molecular mass:   209.08406 amu.
 Principal axes and moments of inertia in atomic units:
                           1         2         3
     Eigenvalues --  2132.561113791.705664616.13319
           X            0.99957  -0.02914  -0.00109
           Y            0.02916   0.99901   0.03365
           Z            0.00011  -0.03367   0.99943
 This molecule is an asymmetric top.
 Rotational symmetry number  1.
 Warning -- assumption of classical behavior for rotation
           may cause significant error
 Rotational temperatures (Kelvin)      0.04061     0.02284     0.01876
 Rotational constants (GHZ):           0.84628     0.47597     0.39096
 Zero-point vibrational energy     539686.9 (Joules/Mol)
                                  128.98827 (Kcal/Mol)
 Warning -- explicit consideration of  23 degrees of freedom as
           vibrations may cause significant error
 Vibrational temperatures:     33.49   102.11   127.20   169.01   184.41
          (Kelvin)            237.20   258.37   282.62   301.46   313.47
                              403.21   447.06   467.79   507.81   560.58
                              580.42   597.97   689.88   713.39   737.48
                              768.35   845.12   881.24   900.64   959.63
                              990.13  1038.25  1094.10  1119.97  1126.08
                             1173.33  1234.69  1282.79  1338.60  1384.51
                             1387.68  1399.64  1481.73  1486.16  1528.12
                             1547.11  1654.52  1684.78  1711.30  1737.13
                             1757.62  1777.97  1813.50  1846.15  1875.15
                             1892.08  1897.24  1965.74  2055.07  2098.50
                             2130.02  2150.08  2156.01  2162.92  2264.19
                             2307.11  2420.53  2862.30  3209.72  4367.85
                             4468.77  4482.72  4490.72  4493.98  4514.18
                             4525.27  4542.99  4551.70  4588.34  4679.89

 Zero-point correction=                           0.205556 (Hartree/Particle)
 Thermal correction to Energy=                    0.220246
 Thermal correction to Enthalpy=                  0.221190
 Thermal correction to Gibbs Free Energy=         0.163849
 Sum of electronic and zero-point Energies=           -669.588117
 Sum of electronic and thermal Energies=              -669.573427
 Sum of electronic and thermal Enthalpies=            -669.572483
 Sum of electronic and thermal Free Energies=         -669.629824

                     E (Thermal)             CV                S
                      KCal/Mol        Cal/Mol-Kelvin    Cal/Mol-Kelvin
 Total                  138.206             56.014            120.684
 Electronic               0.000              0.000              0.000
 Translational            0.889              2.981             41.917
 Rotational               0.889              2.981             31.990
 Vibrational            136.429             50.053             46.777
 Vibration     1          0.593              1.985              6.333
 Vibration     2          0.598              1.968              4.126
 Vibration     3          0.601              1.957              3.695
 Vibration     4          0.608              1.935              3.142
 Vibration     5          0.611              1.925              2.973
 Vibration     6          0.623              1.886              2.493
 Vibration     7          0.629              1.867              2.333
 Vibration     8          0.636              1.845              2.166
 Vibration     9          0.642              1.826              2.048
 Vibration    10          0.646              1.814              1.977
 Vibration    11          0.680              1.710              1.532
 Vibration    12          0.700              1.653              1.358
 Vibration    13          0.709              1.625              1.284
 Vibration    14          0.729              1.569              1.153
 Vibration    15          0.758              1.492              1.002
 Vibration    16          0.769              1.463              0.950
 Vibration    17          0.779              1.436              0.907
 Vibration    18          0.836              1.296              0.711
 Vibration    19          0.851              1.259              0.669
 Vibration    20          0.868              1.222              0.627
 Vibration    21          0.889              1.175              0.578
 Vibration    22          0.945              1.059              0.472
 Vibration    23          0.972              1.005              0.429

 Optimization completed.
    -- Stationary point found.
 Normal termination of Gaussian 16 at Tue May 30 05:52:59 2023.
