 Gaussian 16, Revision A.03,
 Gaussian 16:  ES64L-G16RevA.03 25-Dec-2016

 -----------------------------
 # opt freq b3lyp/6-31g(2df,p)
 -----------------------------

 -------------------
 Title Card Required
 -------------------
 Symbolic Z-matrix:
 Charge =  0 Multiplicity = 1

 SCF Done:  E(RB3LYP) =  -692.717310410     A.U. after   13 cycles
 SCF Done:  E(RB3LYP) =  -692.740095909     A.U. after   11 cycles
 SCF Done:  E(RB3LYP) =  -692.743830971     A.U. after   11 cycles
 SCF Done:  E(RB3LYP) =  -692.744119957     A.U. after   10 cycles
 SCF Done:  E(RB3LYP) =  -692.744256551     A.U. after   10 cycles
 SCF Done:  E(RB3LYP) =  -692.744343113     A.U. after    9 cycles
 SCF Done:  E(RB3LYP) =  -692.744489217     A.U. after   10 cycles
 SCF Done:  E(RB3LYP) =  -692.744590268     A.U. after   10 cycles
 SCF Done:  E(RB3LYP) =  -692.744660964     A.U. after   10 cycles
 SCF Done:  E(RB3LYP) =  -692.744676970     A.U. after    9 cycles
 SCF Done:  E(RB3LYP) =  -692.744681470     A.U. after    9 cycles
 SCF Done:  E(RB3LYP) =  -692.744689319     A.U. after    9 cycles
 SCF Done:  E(RB3LYP) =  -692.744696108     A.U. after    9 cycles
 SCF Done:  E(RB3LYP) =  -692.744699370     A.U. after    9 cycles
 SCF Done:  E(RB3LYP) =  -692.744700708     A.U. after    9 cycles
 SCF Done:  E(RB3LYP) =  -692.744701160     A.U. after    9 cycles
 SCF Done:  E(RB3LYP) =  -692.744701211     A.U. after    6 cycles
 SCF Done:  E(RB3LYP) =  -692.744701224     A.U. after    6 cycles
 SCF Done:  E(RB3LYP) =  -692.744701227     A.U. after    6 cycles
 Optimization completed.
    -- Stationary point found.
 Normal termination of Gaussian 16 at Mon May 22 08:16:58 2023.

 ----------------------------------------------------------------------
 #N Geom=AllCheck Guess=TCheck SCRF=Check GenChk RB3LYP/6-31G(2df,p) Fr
 eq
 ----------------------------------------------------------------------

 Structure from the checkpoint file:  "COCCCOCCCOC1dCCO1.chk"
 -------------------
 Title Card Required
 -------------------
 Charge =  0 Multiplicity = 1

                         Standard orientation:
 ---------------------------------------------------------------------
 Center     Atomic      Atomic             Coordinates (Angstroms)
 Number     Number       Type             X           Y           Z
 ---------------------------------------------------------------------
      1          6           0        7.333783    0.070719   -0.000078
      2          8           0        6.069402   -0.544951    0.000182
      3          6           0        5.007407    0.382553   -0.000170
      4          6           0        3.695173   -0.389652    0.000127
      5          6           0        2.480316    0.527708   -0.000079
      6          8           0        1.317412   -0.272650    0.000107
      7          6           0        0.123815    0.475850   -0.000060
      8          6           0       -1.047789   -0.498527    0.000082
      9          6           0       -2.385788    0.221145   -0.000040
     10          8           0       -3.411642   -0.788733    0.000136
     11          6           0       -4.666144   -0.365023   -0.000007
     12          6           0       -5.897575   -0.895756   -0.000286
     13          6           0       -6.397479    0.529806   -0.000044
     14          8           0       -4.979672    0.978345    0.000255
     15          1           0        8.085035   -0.722815    0.000225
     16          1           0        7.483210    0.701438    0.891196
     17          1           0        7.483187    0.700736   -0.891852
     18          1           0        5.071802    1.038399   -0.886910
     19          1           0        5.071805    1.039076    0.886069
     20          1           0        3.658208   -1.038838    0.881001
     21          1           0        3.658096   -1.039360   -0.880357
     22          1           0        2.490531    1.185835   -0.886773
     23          1           0        2.490539    1.186240    0.886314
     24          1           0        0.081012    1.133037   -0.886650
     25          1           0        0.080962    1.133354    0.886291
     26          1           0       -0.979671   -1.144574    0.881229
     27          1           0       -0.979656   -1.144857   -0.880856
     28          1           0       -2.502973    0.855967   -0.885695
     29          1           0       -2.502971    0.856263    0.885400
     30          1           0       -6.336913   -1.874592   -0.000680
     31          1           0       -6.895369    0.902643    0.899892
     32          1           0       -6.895140    0.903027   -0.899948
 ---------------------------------------------------------------------

 SCF Done:  E(RB3LYP) =  -692.744701227     A.U. after    1 cycles

 The electronic state is 1-A.
 Alpha  occ. eigenvalues --  -19.18106 -19.15858 -19.14251 -19.13907 -10.27911
 Alpha  occ. eigenvalues --  -10.24582 -10.23897 -10.23486 -10.23139 -10.22931
 Alpha  occ. eigenvalues --  -10.22377 -10.18865 -10.18020 -10.15476  -1.10133
 Alpha  occ. eigenvalues --   -1.04381  -1.03789  -1.03285  -0.80562  -0.78049
 Alpha  occ. eigenvalues --   -0.74669  -0.71516  -0.68405  -0.65226  -0.62855
 Alpha  occ. eigenvalues --   -0.60422  -0.59171  -0.55391  -0.50808  -0.50488
 Alpha  occ. eigenvalues --   -0.50091  -0.49390  -0.48288  -0.47656  -0.47626
 Alpha  occ. eigenvalues --   -0.46026  -0.44973  -0.43338  -0.42159  -0.40011
 Alpha  occ. eigenvalues --   -0.39651  -0.37640  -0.37115  -0.36439  -0.35934
 Alpha  occ. eigenvalues --   -0.34754  -0.34490  -0.33582  -0.32993  -0.32053
 Alpha  occ. eigenvalues --   -0.31585  -0.29792  -0.26120  -0.25335  -0.19775
 Alpha virt. eigenvalues --    0.06361   0.08060   0.08706   0.09152   0.10400
 Alpha virt. eigenvalues --    0.10583   0.11597   0.12389   0.12939   0.13768
 Alpha virt. eigenvalues --    0.13841   0.14864   0.15803   0.16084   0.16169

 Mulliken charges:
               1
     1  C   -0.228245
     2  O   -0.228786
     3  C   -0.050109
     4  C   -0.213077
     5  C   -0.055912
     6  O   -0.245500
     7  C   -0.056638
     8  C   -0.217323
     9  C   -0.082293
    10  O   -0.268832
    11  C    0.530890
    12  C   -0.416446
    13  C   -0.085997
    14  O   -0.305116
    15  H    0.127524
    16  H    0.102082
    17  H    0.102082
    18  H    0.083234
    19  H    0.083232
    20  H    0.117739
    21  H    0.117738
    22  H    0.085251
    23  H    0.085254
    24  H    0.087132
    25  H    0.087134
    26  H    0.122883
    27  H    0.122880
    28  H    0.122738
    29  H    0.122752
    30  H    0.111228
    31  H    0.121251
    32  H    0.121250
 Sum of Mulliken charges =  -0.00000

 Dipole moment (field-independent basis, Debye):
    X=              0.8811    Y=              2.2545    Z=             -0.0011  Tot=              2.4206
 Quadrupole moment (field-independent basis, Debye-Ang):
   XX=            -75.1092   YY=            -87.0089   ZZ=            -83.9846
   XY=              5.8435   XZ=              0.0000   YZ=              0.0007

  Exact polarizability: 181.777   1.173 106.139   0.002   0.002  94.086
 Approx polarizability: 196.824   4.317 166.106   0.005   0.003 144.057

                      1                      2                      3
                      A                      A                      A
 Frequencies --      8.4762                20.0144                34.7356
 Red. masses --      3.0004                 3.6359                 4.7344
 Frc consts  --      0.0001                 0.0009                 0.0034
 IR Inten    --      2.7463                 1.7115                 0.1139

                      4                      5                      6
                      A                      A                      A
 Frequencies --     41.2414                53.1197                80.3929
 Red. masses --      4.3064                 1.8230                 3.5579
 Frc consts  --      0.0043                 0.0030                 0.0135
 IR Inten    --      0.0366                 0.0015                 0.6391

                      7                      8                      9
                      A                      A                      A
 Frequencies --     92.7452               101.3058               120.1013
 Red. masses --      4.6055                 2.0021                 2.7764
 Frc consts  --      0.0233                 0.0121                 0.0236
 IR Inten    --      0.0013                 1.0500                 0.0869

                     10                     11                     12
                      A                      A                      A
 Frequencies --    141.1813               157.9382               158.3912
 Red. masses --      1.9908                 3.1199                 4.6887
 Frc consts  --      0.0234                 0.0459                 0.0693
 IR Inten    --      0.0395                 7.4544                 0.9671

                     13                     14                     15
                      A                      A                      A
 Frequencies --    208.4826               235.1944               267.7534
 Red. masses --      5.5687                 1.2302                 2.8267
 Frc consts  --      0.1426                 0.0401                 0.1194
 IR Inten    --      0.8846                 2.9327                 9.9361

                     16                     17                     18
                      A                      A                      A
 Frequencies --    273.9319               367.1978               393.7959
 Red. masses --      4.0102                 4.3590                 3.8502
 Frc consts  --      0.1773                 0.3463                 0.3518
 IR Inten    --      0.6876                 5.9310                 6.7043

                     19                     20                     21
                      A                      A                      A
 Frequencies --    496.3561               527.5462               562.3808
 Red. masses --      3.8829                 3.2708                 3.9872
 Frc consts  --      0.5636                 0.5363                 0.7430
 IR Inten    --      1.7661                 1.6784                15.0738

                     22                     23                     24
                      A                      A                      A
 Frequencies --    590.1366               682.7682               752.9023
 Red. masses --      1.1925                 6.0848                 7.1744
 Frc consts  --      0.2447                 1.6713                 2.3962
 IR Inten    --     48.1374                 6.6398                 0.5375

                     25                     26                     27
                      A                      A                      A
 Frequencies --    776.5845               780.2719               881.4756
 Red. masses --      1.0769                 1.0818                 1.1510
 Frc consts  --      0.3827                 0.3881                 0.5269
 IR Inten    --      0.1666                 0.4803                 0.0046

                     28                     29                     30
                      A                      A                      A
 Frequencies --    881.7707               894.7451               942.7963
 Red. masses --      8.8700                 1.1502                 1.8857
 Frc consts  --      4.0634                 0.5425                 0.9875
 IR Inten    --     36.0323                 0.0013                21.3726

                     31                     32                     33
                      A                      A                      A
 Frequencies --    974.9256               999.2470              1014.5588
 Red. masses --      4.9170                 6.0453                 1.4024
 Frc consts  --      2.7535                 3.5564                 0.8505
 IR Inten    --      6.3859                33.7647                 2.4211

                     34                     35                     36
                      A                      A                      A
 Frequencies --   1027.5755              1058.9119              1069.9057
 Red. masses --      5.1172                 2.5299                 2.3247
 Frc consts  --      3.1836                 1.6713                 1.5679
 IR Inten    --     40.9255                 5.4934                 4.5022

                     37                     38                     39
                      A                      A                      A
 Frequencies --   1082.7533              1103.3072              1103.5445
 Red. masses --      3.6150                 1.1548                 8.5418
 Frc consts  --      2.4970                 0.8282                 6.1289
 IR Inten    --      2.1252                 1.6825               265.4702

                     40                     41                     42
                      A                      A                      A
 Frequencies --   1127.1989              1159.5335              1165.2050
 Red. masses --      3.8864                 7.8316                 1.5301
 Frc consts  --      2.9094                 6.2039                 1.2240
 IR Inten    --     10.7976               417.1741                 0.0345

                     43                     44                     45
                      A                      A                      A
 Frequencies --   1175.0708              1176.6577              1196.0155
 Red. masses --      5.7295                 1.4690                 1.5198
 Frc consts  --      4.6611                 1.1983                 1.2809
 IR Inten    --      2.2260                 1.7341                13.5489

                     46                     47                     48
                      A                      A                      A
 Frequencies --   1196.0912              1228.2553              1231.0924
 Red. masses --      1.5753                 1.7036                 1.2113
 Frc consts  --      1.3278                 1.5143                 1.0816
 IR Inten    --     29.9404                29.9262                 1.4032

                     49                     50                     51
                      A                      A                      A
 Frequencies --   1236.0711              1243.8590              1290.2119
 Red. masses --      2.3304                 1.2690                 1.3432
 Frc consts  --      2.0978                 1.1568                 1.3174
 IR Inten    --     29.3029                 0.2014                 2.7580

                     52                     53                     54
                      A                      A                      A
 Frequencies --   1302.7364              1302.7796              1303.3885
 Red. masses --      1.0825                 1.0841                 1.4362
 Frc consts  --      1.0824                 1.0840                 1.4375
 IR Inten    --      0.0016                 0.0092                 0.6272

                     55                     56                     57
                      A                      A                      A
 Frequencies --   1303.9412              1306.3061              1359.1008
 Red. masses --      1.0879                 1.1265                 3.0146
 Frc consts  --      1.0898                 1.1326                 3.2808
 IR Inten    --      0.1957                 2.2608               329.8930

                     58                     59                     60
                      A                      A                      A
 Frequencies --   1403.2142              1425.0942              1431.2205
 Red. masses --      1.2968                 1.4598                 1.4085
 Frc consts  --      1.5044                 1.7468                 1.6999
 IR Inten    --     26.1279                21.4925                65.7803

                     61                     62                     63
                      A                      A                      A
 Frequencies --   1460.4040              1482.3013              1485.4168
 Red. masses --      1.5319                 1.1730                 1.0468
 Frc consts  --      1.9250                 1.5185                 1.3608
 IR Inten    --      3.5378                 0.2252                 4.9905

                     64                     65                     66
                      A                      A                      A
 Frequencies --   1497.1030              1499.3143              1504.2994
 Red. masses --      1.0849                 1.0877                 1.1384
 Frc consts  --      1.4326                 1.4406                 1.5178
 IR Inten    --      0.4084                 2.9973                 6.5786

                     67                     68                     69
                      A                      A                      A
 Frequencies --   1505.1391              1514.3766              1523.3237
 Red. masses --      1.0684                 1.0842                 1.0895
 Frc consts  --      1.4261                 1.4650                 1.4896
 IR Inten    --     11.1237                11.8988                 2.2818

                     70                     71                     72
                      A                      A                      A
 Frequencies --   1533.3488              1541.0496              1739.0309
 Red. masses --      1.0949                 1.0947                 7.9199
 Frc consts  --      1.5167                 1.5317                14.1119
 IR Inten    --      0.3865                 0.9203               443.1714

                     73                     74                     75
                      A                      A                      A
 Frequencies --   2933.1178              2938.2200              2949.3119
 Red. masses --      1.0527                 1.0534                 1.0541
 Frc consts  --      5.3359                 5.3580                 5.4024
 IR Inten    --     29.4888                 4.4935                93.1838

                     76                     77                     78
                      A                      A                      A
 Frequencies --   2958.5039              2964.8700              2966.6571
 Red. masses --      1.1052                 1.1045                 1.0385
 Frc consts  --      5.6994                 5.7205                 5.3849
 IR Inten    --     10.9696                91.7262                83.6569

                     79                     80                     81
                      A                      A                      A
 Frequencies --   2968.4452              3007.6209              3031.2185
 Red. masses --      1.1049                 1.1030                 1.0560
 Frc consts  --      5.7361                 5.8783                 5.7167
 IR Inten    --     60.7698                60.8933                20.1058

                     82                     83                     84
                      A                      A                      A
 Frequencies --   3050.2887              3053.0635              3055.5505
 Red. masses --      1.0537                 1.0584                 1.0584
 Frc consts  --      5.7763                 5.8129                 5.8220
 IR Inten    --     66.9322                14.8263                23.4860

                     85                     86                     87
                      A                      A                      A
 Frequencies --   3070.2877              3099.4412              3104.9672
 Red. masses --      1.1066                 1.1050                 1.1119
 Frc consts  --      6.1461                 6.2544                 6.3160
 IR Inten    --      9.3773                27.3088                24.9259

                     88                     89                     90
                      A                      A                      A
 Frequencies --   3105.8390              3113.0049              3314.7423
 Red. masses --      1.1064                 1.0954                 1.1040
 Frc consts  --      6.2883                 6.2544                 7.1466
 IR Inten    --     38.4145                31.4151                 2.6969

 - Thermochemistry -
 -------------------
 Temperature   298.150 Kelvin.  Pressure   1.00000 Atm.
 Atom     1 has atomic number  6 and mass  12.00000

 Molecular mass:   202.12051 amu.
 Principal axes and moments of inertia in atomic units:
                           1         2         3
     Eigenvalues --   329.29936********************
           X            1.00000   0.00286  -0.00000
           Y           -0.00286   1.00000  -0.00000
           Z            0.00000   0.00000   1.00000
 This molecule is an asymmetric top.
 Rotational symmetry number  1.
 Rotational temperatures (Kelvin)      0.26302     0.00596     0.00587
 Rotational constants (GHZ):           5.48055     0.12426     0.12225
 Zero-point vibrational energy     720712.8 (Joules/Mol)
                                  172.25448 (Kcal/Mol)
 Warning -- explicit consideration of  22 degrees of freedom as
           vibrations may cause significant error
 Vibrational temperatures:     12.20    28.80    49.98    59.34    76.43
          (Kelvin)            115.67   133.44   145.76   172.80   203.13
                              227.24   227.89   299.96   338.39   385.24
                              394.13   528.32   566.58   714.15   759.02
                              809.14   849.08   982.35  1083.26  1117.33
                             1122.64  1268.25  1268.67  1287.34  1356.47
                             1402.70  1437.69  1459.72  1478.45  1523.54
                             1539.36  1557.84  1587.41  1587.75  1621.79
                             1668.31  1676.47  1690.66  1692.95  1720.80
                             1720.91  1767.19  1771.27  1778.43  1789.64
                             1856.33  1874.35  1874.41  1875.29  1876.08
                             1879.48  1955.44  2018.91  2050.39  2059.21
                             2101.20  2132.70  2137.18  2154.00  2157.18
                             2164.35  2165.56  2178.85  2191.72  2206.15
                             2217.23  2502.08  4220.10  4227.44  4243.40
                             4256.63  4265.79  4268.36  4270.93  4327.30
                             4361.25  4388.69  4392.68  4396.26  4417.46
                             4459.40  4467.36  4468.61  4478.92  4769.17

 Zero-point correction=                           0.274505 (Hartree/Particle)
 Thermal correction to Energy=                    0.291206
 Thermal correction to Enthalpy=                  0.292151
 Thermal correction to Gibbs Free Energy=         0.225006
 Sum of electronic and zero-point Energies=           -692.470196
 Sum of electronic and thermal Energies=              -692.453495
 Sum of electronic and thermal Enthalpies=            -692.452551
 Sum of electronic and thermal Free Energies=         -692.519695

                     E (Thermal)             CV                S
                      KCal/Mol        Cal/Mol-Kelvin    Cal/Mol-Kelvin
 Total                  182.735             56.472            141.317
 Electronic               0.000              0.000              0.000
 Translational            0.889              2.981             41.816
 Rotational               0.889              2.981             32.623
 Vibrational            180.957             50.511             66.878
 Vibration     1          0.593              1.987              8.340
 Vibration     2          0.593              1.986              6.633
 Vibration     3          0.594              1.983              5.539
 Vibration     4          0.594              1.981              5.199
 Vibration     5          0.596              1.976              4.698
 Vibration     6          0.600              1.962              3.881
 Vibration     7          0.602              1.954              3.601
 Vibration     8          0.604              1.948              3.429
 Vibration     9          0.609              1.933              3.099
 Vibration    10          0.615              1.912              2.788
 Vibration    11          0.621              1.894              2.574
 Vibration    12          0.621              1.893              2.569
 Vibration    13          0.642              1.828              2.057
 Vibration    14          0.655              1.787              1.839
 Vibration    15          0.673              1.732              1.611
 Vibration    16          0.676              1.721              1.571
 Vibration    17          0.740              1.540              1.091
 Vibration    18          0.761              1.483              0.986
 Vibration    19          0.852              1.258              0.667
 Vibration    20          0.883              1.189              0.593
 Vibration    21          0.918              1.113              0.519
 Vibration    22          0.947              1.053              0.467

 Optimization completed.
    -- Stationary point found.
 Normal termination of Gaussian 16 at Mon May 22 09:35:19 2023.
