 Gaussian 16, Revision A.03,
 Gaussian 16:  ES64L-G16RevA.03 25-Dec-2016

 -----------------------------
 # opt freq b3lyp/6-31g(2df,p)
 -----------------------------

 -------------------
 Title Card Required
 -------------------
 Symbolic Z-matrix:
 Charge =  0 Multiplicity = 1

 SCF Done:  E(RB3LYP) =  -751.100543518     A.U. after   14 cycles
 SCF Done:  E(RB3LYP) =  -751.109523688     A.U. after   12 cycles
 SCF Done:  E(RB3LYP) =  -751.112435039     A.U. after   11 cycles
 SCF Done:  E(RB3LYP) =  -751.113104395     A.U. after   11 cycles
 SCF Done:  E(RB3LYP) =  -751.113425090     A.U. after   11 cycles
 SCF Done:  E(RB3LYP) =  -751.113799963     A.U. after   10 cycles
 SCF Done:  E(RB3LYP) =  -751.114421997     A.U. after   11 cycles
 SCF Done:  E(RB3LYP) =  -751.114552979     A.U. after   11 cycles
 SCF Done:  E(RB3LYP) =  -751.115236301     A.U. after   11 cycles
 SCF Done:  E(RB3LYP) =  -751.116053357     A.U. after   11 cycles
 SCF Done:  E(RB3LYP) =  -751.116384439     A.U. after   11 cycles
 SCF Done:  E(RB3LYP) =  -751.116456768     A.U. after   10 cycles
 SCF Done:  E(RB3LYP) =  -751.116471935     A.U. after    9 cycles
 SCF Done:  E(RB3LYP) =  -751.116472862     A.U. after    7 cycles
 SCF Done:  E(RB3LYP) =  -751.116473058     A.U. after    6 cycles
 Optimization completed.
    -- Stationary point found.
 Normal termination of Gaussian 16 at Wed May 24 10:12:49 2023.

 ----------------------------------------------------------------------
 #N Geom=AllCheck Guess=TCheck SCRF=Check GenChk RB3LYP/6-31G(2df,p) Fr
 eq
 ----------------------------------------------------------------------

 Structure from the checkpoint file:  "COCCCCdNNC1CqCrCCCCC1N.chk"
 -------------------
 Title Card Required
 -------------------
 Charge =  0 Multiplicity = 1

                         Standard orientation:
 ---------------------------------------------------------------------
 Center     Atomic      Atomic             Coordinates (Angstroms)
 Number     Number       Type             X           Y           Z
 ---------------------------------------------------------------------
      1          6           0       -7.248070    0.538638   -0.714363
      2          8           0       -6.096619    0.466230    0.089522
      3          6           0       -5.005905   -0.141957   -0.566134
      4          6           0       -3.813543   -0.155392    0.380712
      5          6           0       -2.575171   -0.822311   -0.244056
      6          6           0       -1.415131   -0.890213    0.703329
      7          7           0       -0.326343   -0.265403    0.467910
      8          7           0        0.660525   -0.266723    1.404366
      9          6           0        2.036594   -0.026183    0.950487
     10          6           0        2.718310   -1.321076    0.420631
     11          6           0        1.966765   -1.991027   -0.743014
     12          6           0        4.226755   -1.158805    0.114614
     13          6           0        4.573496   -0.392158   -1.172682
     14          6           0        4.508390    1.149930   -1.089403
     15          6           0        3.564788    1.758789   -0.040742
     16          6           0        2.118359    1.223363    0.021553
     17          7           0        1.246338    2.331062    0.432530
     18          1           0       -8.031019    1.021727   -0.124473
     19          1           0       -7.599294   -0.460515   -1.019481
     20          1           0       -7.074740    1.131377   -1.627060
     21          1           0       -4.756306    0.409297   -1.490097
     22          1           0       -5.266247   -1.171841   -0.870449
     23          1           0       -4.103411   -0.680395    1.299035
     24          1           0       -3.575115    0.874390    0.668566
     25          1           0       -2.256449   -0.275540   -1.137385
     26          1           0       -2.844280   -1.839796   -0.564419
     27          1           0       -1.544325   -1.476838    1.625308
     28          1           0        0.587315   -1.007125    2.101688
     29          1           0        2.572252    0.247734    1.871771
     30          1           0        2.669036   -2.024638    1.265899
     31          1           0        1.824471   -1.321993   -1.595723
     32          1           0        0.975204   -2.328426   -0.436537
     33          1           0        2.524500   -2.865443   -1.096515
     34          1           0        4.643242   -2.170164    0.030284
     35          1           0        4.730833   -0.700637    0.975884
     36          1           0        3.917260   -0.745036   -1.974670
     37          1           0        5.584299   -0.676695   -1.486095
     38          1           0        4.238980    1.541050   -2.077867
     39          1           0        5.512180    1.540777   -0.882898
     40          1           0        3.488384    2.831858   -0.240620
     41          1           0        4.017255    1.670670    0.956405
     42          1           0        1.793252    0.940569   -0.985626
     43          1           0        1.460754    2.587087    1.394548
     44          1           0        0.287464    1.996573    0.445109
 ---------------------------------------------------------------------

 SCF Done:  E(RB3LYP) =  -751.116473058     A.U. after    1 cycles

 The electronic state is 1-A.
 Alpha  occ. eigenvalues --  -19.13598 -14.35331 -14.35268 -14.28756 -10.22459
 Alpha  occ. eigenvalues --  -10.22139 -10.20885 -10.20576 -10.19869 -10.18683
 Alpha  occ. eigenvalues --  -10.18468 -10.18077 -10.17583 -10.17191 -10.17167
 Alpha  occ. eigenvalues --  -10.16685 -10.16680  -1.02975  -0.99402  -0.87358
 Alpha  occ. eigenvalues --   -0.83371  -0.80578  -0.78228  -0.75793  -0.72582
 Alpha  occ. eigenvalues --   -0.70713  -0.67962  -0.65255  -0.62982  -0.61912
 Alpha  occ. eigenvalues --   -0.59604  -0.57964  -0.54907  -0.53518  -0.51342
 Alpha  occ. eigenvalues --   -0.48929  -0.48150  -0.47610  -0.46956  -0.46112
 Alpha  occ. eigenvalues --   -0.45272  -0.44457  -0.43482  -0.42737  -0.42277
 Alpha  occ. eigenvalues --   -0.41108  -0.40272  -0.38864  -0.38085  -0.37532
 Alpha  occ. eigenvalues --   -0.37279  -0.36290  -0.35971  -0.35209  -0.34769
 Alpha  occ. eigenvalues --   -0.33508  -0.33060  -0.32286  -0.31653  -0.31330
 Alpha  occ. eigenvalues --   -0.30701  -0.30467  -0.29981  -0.26984  -0.25223
 Alpha  occ. eigenvalues --   -0.21993  -0.20610
 Alpha virt. eigenvalues --    0.01251   0.07183   0.08480   0.09100   0.10208
 Alpha virt. eigenvalues --    0.10417   0.10908   0.11892   0.13260   0.13593
 Alpha virt. eigenvalues --    0.14145   0.14413   0.14603   0.15277   0.15777

 Mulliken charges:
               1
     1  C   -0.227572
     2  O   -0.230728
     3  C   -0.046497
     4  C   -0.194801
     5  C   -0.255056
     6  C   -0.012012
     7  N   -0.108819
     8  N   -0.255608
     9  C    0.016022
    10  C    0.030226
    11  C   -0.394169
    12  C   -0.218942
    13  C   -0.187685
    14  C   -0.199810
    15  C   -0.190598
    16  C    0.031736
    17  N   -0.518272
    18  H    0.125744
    19  H    0.100885
    20  H    0.102640
    21  H    0.085277
    22  H    0.080612
    23  H    0.104177
    24  H    0.114550
    25  H    0.114473
    26  H    0.100793
    27  H    0.067892
    28  H    0.213238
    29  H    0.068268
    30  H    0.054742
    31  H    0.126978
    32  H    0.117553
    33  H    0.104259
    34  H    0.089320
    35  H    0.087744
    36  H    0.099415
    37  H    0.090994
    38  H    0.097822
    39  H    0.092387
    40  H    0.106320
    41  H    0.083263
    42  H    0.084955
    43  H    0.212064
    44  H    0.236220
 Sum of Mulliken charges =  -0.00000

 Dipole moment (field-independent basis, Debye):
    X=             -0.0569    Y=             -2.4476    Z=              0.5348  Tot=              2.5060
 Quadrupole moment (field-independent basis, Debye-Ang):
   XX=            -99.7962   YY=           -110.5984   ZZ=           -103.3953
   XY=              0.4907   XZ=              7.6520   YZ=             -0.9223

  Exact polarizability: 230.773   5.224 151.431   1.591  -0.893 139.754
 Approx polarizability: 269.443  13.555 221.967   8.405  -1.380 222.624

                      1                      2                      3
                      A                      A                      A
 Frequencies --     21.5210                32.5152                37.4486
 Red. masses --      4.1900                 3.6639                 2.2897
 Frc consts  --      0.0011                 0.0023                 0.0019
 IR Inten    --      0.1761                 0.0817                 0.4401

                      4                      5                      6
                      A                      A                      A
 Frequencies --     46.9435                58.2954                74.5846
 Red. masses --      2.0269                 2.9544                 4.0680
 Frc consts  --      0.0026                 0.0059                 0.0133
 IR Inten    --      1.3733                 0.9175                 0.4289

                      7                      8                      9
                      A                      A                      A
 Frequencies --    100.1069               122.7278               133.2626
 Red. masses --      2.9383                 2.1337                 2.9444
 Frc consts  --      0.0173                 0.0189                 0.0308
 IR Inten    --      0.0193                 4.6009                 0.9998

                     10                     11                     12
                      A                      A                      A
 Frequencies --    160.1606               169.1733               209.9565
 Red. masses --      2.6294                 2.4367                 1.5134
 Frc consts  --      0.0397                 0.0411                 0.0393
 IR Inten    --      2.7393                 0.2218                 1.3183

                     13                     14                     15
                      A                      A                      A
 Frequencies --    223.7409               235.6878               258.1372
 Red. masses --      2.2895                 1.2727                 1.6020
 Frc consts  --      0.0675                 0.0417                 0.0629
 IR Inten    --      6.6948                 4.6635                29.4658

                     16                     17                     18
                      A                      A                      A
 Frequencies --    262.9647               276.4517               300.8186
 Red. masses --      2.4311                 1.6900                 2.2947
 Frc consts  --      0.0990                 0.0761                 0.1223
 IR Inten    --      1.3136                 3.7095                 0.5536

                     19                     20                     21
                      A                      A                      A
 Frequencies --    307.1752               321.0681               334.2281
 Red. masses --      3.2160                 3.9257                 3.2581
 Frc consts  --      0.1788                 0.2384                 0.2144
 IR Inten    --      0.5649                 2.1865                 1.6492

                     22                     23                     24
                      A                      A                      A
 Frequencies --    380.3049               389.8353               405.8378
 Red. masses --      2.8471                 2.8283                 2.7405
 Frc consts  --      0.2426                 0.2532                 0.2659
 IR Inten    --      7.2772                 0.3986                19.6418

                     25                     26                     27
                      A                      A                      A
 Frequencies --    436.1548               474.3560               508.3232
 Red. masses --      2.6660                 2.2409                 3.0108
 Frc consts  --      0.2988                 0.2971                 0.4584
 IR Inten    --      8.3323                 6.7312                 1.9700

                     28                     29                     30
                      A                      A                      A
 Frequencies --    529.0855               554.3459               599.5112
 Red. masses --      3.0029                 2.5625                 2.1679
 Frc consts  --      0.4953                 0.4640                 0.4591
 IR Inten    --     20.0281                 5.0778                 5.9156

                     31                     32                     33
                      A                      A                      A
 Frequencies --    618.6837               714.1876               762.1027
 Red. masses --      1.7723                 2.2196                 1.1269
 Frc consts  --      0.3997                 0.6670                 0.3856
 IR Inten    --     58.5615                 4.8650                 1.4691

                     34                     35                     36
                      A                      A                      A
 Frequencies --    775.1894               777.3716               832.6641
 Red. masses --      2.7413                 1.6598                 2.7924
 Frc consts  --      0.9706                 0.5910                 1.1407
 IR Inten    --      3.8778                 1.5184                 6.6649

                     37                     38                     39
                      A                      A                      A
 Frequencies --    850.6082               872.0379               906.6854
 Red. masses --      1.8025                 1.4990                 1.9389
 Frc consts  --      0.7684                 0.6716                 0.9391
 IR Inten    --      2.4042                 9.7095                13.2635

                     40                     41                     42
                      A                      A                      A
 Frequencies --    916.3064               924.3180               931.0912
 Red. masses --      1.5200                 1.8175                 2.1717
 Frc consts  --      0.7519                 0.9149                 1.1093
 IR Inten    --     19.0508                59.5603                37.4818

                     43                     44                     45
                      A                      A                      A
 Frequencies --    964.3882               976.4733               990.0522
 Red. masses --      1.7156                 4.1778                 1.8561
 Frc consts  --      0.9401                 2.3470                 1.0719
 IR Inten    --     12.9131                19.5391                30.2035

                     46                     47                     48
                      A                      A                      A
 Frequencies --   1025.7799              1029.5109              1037.5683
 Red. masses --      1.7908                 2.1915                 2.1341
 Frc consts  --      1.1102                 1.3685                 1.3536
 IR Inten    --      8.0371                 0.8641                 9.8653

                     49                     50                     51
                      A                      A                      A
 Frequencies --   1044.4997              1046.7783              1078.4721
 Red. masses --      1.9155                 2.2833                 2.6063
 Frc consts  --      1.2313                 1.4741                 1.7860
 IR Inten    --      3.9049                 2.3734                 3.7049

                     52                     53                     54
                      A                      A                      A
 Frequencies --   1083.2800              1099.9249              1136.8134
 Red. masses --      1.8902                 1.8549                 2.7634
 Frc consts  --      1.3069                 1.3222                 2.1041
 IR Inten    --      4.4849                 7.8499                24.5167

                     55                     56                     57
                      A                      A                      A
 Frequencies --   1145.8191              1148.6201              1164.7581
 Red. masses --      1.7788                 2.1120                 4.7655
 Frc consts  --      1.3760                 1.6417                 3.8091
 IR Inten    --     10.7252                37.7857               190.8863

                     58                     59                     60
                      A                      A                      A
 Frequencies --   1167.8086              1179.4957              1185.4547
 Red. masses --      1.8062                 2.5862                 1.4292
 Frc consts  --      1.4513                 2.1199                 1.1834
 IR Inten    --     50.2203               118.3933                 0.9566

                     61                     62                     63
                      A                      A                      A
 Frequencies --   1194.1930              1222.2387              1224.7799
 Red. masses --      1.6915                 1.4803                 1.4205
 Frc consts  --      1.4212                 1.3029                 1.2555
 IR Inten    --      0.9508                46.6501                 1.5689

                     64                     65                     66
                      A                      A                      A
 Frequencies --   1229.5912              1247.8866              1276.0000
 Red. masses --      1.3822                 1.3957                 1.3760
 Frc consts  --      1.2312                 1.2805                 1.3200
 IR Inten    --     18.5393                 1.4930                 4.4828

                     67                     68                     69
                      A                      A                      A
 Frequencies --   1280.9848              1291.5678              1300.8231
 Red. masses --      1.3344                 1.2992                 1.1843
 Frc consts  --      1.2901                 1.2770                 1.1807
 IR Inten    --      1.9857                 3.8432                 1.2047

                     70                     71                     72
                      A                      A                      A
 Frequencies --   1307.3795              1313.2049              1334.5042
 Red. masses --      1.2011                 1.0664                 1.2678
 Frc consts  --      1.2095                 1.0835                 1.3303
 IR Inten    --      0.1486                 1.2241                 2.3159

                     73                     74                     75
                      A                      A                      A
 Frequencies --   1346.7271              1352.5581              1371.1619
 Red. masses --      1.3569                 1.3172                 1.3167
 Frc consts  --      1.4500                 1.4198                 1.4585
 IR Inten    --      5.1179                 3.7401                 3.4021

                     76                     77                     78
                      A                      A                      A
 Frequencies --   1376.5338              1378.7563              1389.4168
 Red. masses --      1.3805                 1.3287                 1.3380
 Frc consts  --      1.5413                 1.4882                 1.5218
 IR Inten    --      2.5876                 2.5578                 9.6188

                     79                     80                     81
                      A                      A                      A
 Frequencies --   1392.2718              1401.6289              1407.8924
 Red. masses --      1.3116                 1.3535                 1.4550
 Frc consts  --      1.4979                 1.5667                 1.6993
 IR Inten    --      2.5688                 3.5611                15.2139

                     82                     83                     84
                      A                      A                      A
 Frequencies --   1416.9692              1424.1413              1426.6447
 Red. masses --      1.3536                 1.2788                 1.3897
 Frc consts  --      1.6013                 1.5281                 1.6664
 IR Inten    --      3.0270                 3.7393                40.5386

                     85                     86                     87
                      A                      A                      A
 Frequencies --   1473.9289              1480.9016              1481.9015
 Red. masses --      1.0891                 1.0810                 1.1665
 Frc consts  --      1.3940                 1.3968                 1.5093
 IR Inten    --      2.5954                 0.6141                 0.3037

                     88                     89                     90
                      A                      A                      A
 Frequencies --   1485.3317              1487.4468              1493.5986
 Red. masses --      1.0468                 1.0765                 1.0647
 Frc consts  --      1.3607                 1.4033                 1.3993
 IR Inten    --      4.8024                 2.5339                 6.3795

                     91                     92                     93
                      A                      A                      A
 Frequencies --   1497.2977              1497.6910              1506.2948
 Red. masses --      1.0846                 1.0484                 1.0889
 Frc consts  --      1.4326                 1.3856                 1.4557
 IR Inten    --      3.4440                 4.9879                 5.3235

                     94                     95                     96
                      A                      A                      A
 Frequencies --   1506.5649              1515.9989              1521.6849
 Red. masses --      1.0701                 1.0783                 1.3459
 Frc consts  --      1.4310                 1.4601                 1.8362
 IR Inten    --     13.1322                 4.9055                10.6051

                     97                     98                     99
                      A                      A                      A
 Frequencies --   1532.3932              1655.2823              1701.2701
 Red. masses --      1.0969                 1.0959                 7.6280
 Frc consts  --      1.5175                 1.7691                13.0079
 IR Inten    --      1.2893                15.5377                10.7375

                    100                    101                    102
                      A                      A                      A
 Frequencies --   2936.5408              2962.3883              2966.3042
 Red. masses --      1.0534                 1.1010                 1.0409
 Frc consts  --      5.3519                 5.6926                 5.3961
 IR Inten    --     36.0574                55.2806                80.0949

                    103                    104                    105
                      A                      A                      A
 Frequencies --   2968.8118              2987.7112              2994.7944
 Red. masses --      1.0821                 1.0828                 1.0741
 Frc consts  --      5.6195                 5.6949                 5.6759
 IR Inten    --     32.0558                24.8386                38.9755

                    106                    107                    108
                      A                      A                      A
 Frequencies --   3002.8938              3006.9747              3007.7838
 Red. masses --      1.0765                 1.1029                 1.0684
 Frc consts  --      5.7193                 5.8755                 5.6949
 IR Inten    --     31.8637                61.1384                 4.5612

                    109                    110                    111
                      A                      A                      A
 Frequencies --   3017.4063              3019.6448              3035.6891
 Red. masses --      1.0638                 1.0614                 1.0607
 Frc consts  --      5.7068                 5.7021                 5.7589
 IR Inten    --     56.6443                27.7993                25.5048

                    112                    113                    114
                      A                      A                      A
 Frequencies --   3037.3845              3040.7861              3047.6017
 Red. masses --      1.0679                 1.0504                 1.0972
 Frc consts  --      5.8049                 5.7224                 6.0040
 IR Inten    --     28.1931                11.6021                 4.8380

                    115                    116                    117
                      A                      A                      A
 Frequencies --   3051.8720              3052.7729              3071.5741
 Red. masses --      1.0855                 1.0875                 1.0941
 Frc consts  --      5.9569                 5.9715                 6.0818
 IR Inten    --     17.8395                87.8962                 6.4630

                    118                    119                    120
                      A                      A                      A
 Frequencies --   3075.4324              3081.4286              3090.3930
 Red. masses --      1.0948                 1.0984                 1.1012
 Frc consts  --      6.1012                 6.1447                 6.1963
 IR Inten    --     42.2319                48.9144                41.3464

                    121                    122                    123
                      A                      A                      A
 Frequencies --   3106.6771              3111.1658              3132.3265
 Red. masses --      1.0962                 1.0954                 1.0988
 Frc consts  --      6.2333                 6.2471                 6.3517
 IR Inten    --     33.3609                33.5445                24.6979

                    124                    125                    126
                      A                      A                      A
 Frequencies --   3435.0270              3472.0641              3560.9453
 Red. masses --      1.0735                 1.0519                 1.0879
 Frc consts  --      7.4628                 7.4714                 8.1280
 IR Inten    --      3.3429                 2.6329                 8.5732

 - Thermochemistry -
 -------------------
 Temperature   298.150 Kelvin.  Pressure   1.00000 Atm.
 Atom     1 has atomic number  6 and mass  12.00000

 Molecular mass:   241.21541 amu.
 Principal axes and moments of inertia in atomic units:
                           1         2         3
     Eigenvalues --  1682.77275********************
           X            1.00000  -0.00017   0.00230
           Y            0.00015   0.99997   0.00728
           Z           -0.00230  -0.00728   0.99997
 This molecule is an asymmetric top.
 Rotational symmetry number  1.
 Warning -- assumption of classical behavior for rotation
           may cause significant error
 Rotational temperatures (Kelvin)      0.05147     0.00684     0.00651
 Rotational constants (GHZ):           1.07248     0.14245     0.13555
 Zero-point vibrational energy    1048953.3 (Joules/Mol)
                                  250.70587 (Kcal/Mol)
 Warning -- explicit consideration of  31 degrees of freedom as
           vibrations may cause significant error
 Vibrational temperatures:     30.96    46.78    53.88    67.54    83.87
          (Kelvin)            107.31   144.03   176.58   191.74   230.44
                              243.40   302.08   321.91   339.10   371.40
                              378.35   397.75   432.81   441.96   461.95
                              480.88   547.17   560.89   583.91   627.53
                              682.49   731.36   761.24   797.58   862.56
                              890.15  1027.56  1096.50  1115.32  1118.46
                             1198.02  1223.84  1254.67  1304.52  1318.36
                             1329.89  1339.63  1387.54  1404.93  1424.46
                             1475.87  1481.24  1492.83  1502.80  1506.08
                             1551.68  1558.60  1582.55  1635.62  1648.58
                             1652.61  1675.83  1680.22  1697.03  1705.60
                             1718.18  1758.53  1762.19  1769.11  1795.43
                             1835.88  1843.05  1858.28  1871.59  1881.03
                             1889.41  1920.05  1937.64  1946.03  1972.80
                             1980.53  1983.72  1999.06  2003.17  2016.63
                             2025.64  2038.70  2049.02  2052.62  2120.65
                             2130.69  2132.13  2137.06  2140.10  2148.96
                             2154.28  2154.84  2167.22  2167.61  2181.18
                             2189.37  2204.77  2381.58  2447.75  4225.03
                             4262.22  4267.85  4271.46  4298.65  4308.84
                             4320.49  4326.37  4327.53  4341.37  4344.60
                             4367.68  4370.12  4375.01  4384.82  4390.96
                             4392.26  4419.31  4424.86  4433.49  4446.39
                             4469.82  4476.27  4506.72  4942.24  4995.53
                             5123.41

 Zero-point correction=                           0.399525 (Hartree/Particle)
 Thermal correction to Energy=                    0.419309
 Thermal correction to Enthalpy=                  0.420253
 Thermal correction to Gibbs Free Energy=         0.349458
 Sum of electronic and zero-point Energies=           -750.716948
 Sum of electronic and thermal Energies=              -750.697165
 Sum of electronic and thermal Enthalpies=            -750.696220
 Sum of electronic and thermal Free Energies=         -750.767015

                     E (Thermal)             CV                S
                      KCal/Mol        Cal/Mol-Kelvin    Cal/Mol-Kelvin
 Total                  263.120             73.600            149.001
 Electronic               0.000              0.000              0.000
 Translational            0.889              2.981             42.343
 Rotational               0.889              2.981             34.006
 Vibrational            261.343             67.639             72.652
 Vibration     1          0.593              1.985              6.489
 Vibration     2          0.594              1.983              5.670
 Vibration     3          0.594              1.982              5.390
 Vibration     4          0.595              1.979              4.942
 Vibration     5          0.596              1.974              4.514
 Vibration     6          0.599              1.966              4.029
 Vibration     7          0.604              1.949              3.452
 Vibration     8          0.610              1.930              3.057
 Vibration     9          0.613              1.920              2.898
 Vibration    10          0.622              1.891              2.548
 Vibration    11          0.625              1.880              2.445
 Vibration    12          0.642              1.826              2.044
 Vibration    13          0.649              1.805              1.929
 Vibration    14          0.655              1.786              1.835
 Vibration    15          0.667              1.749              1.674
 Vibration    16          0.670              1.741              1.642
 Vibration    17          0.678              1.717              1.556
 Vibration    18          0.693              1.672              1.412
 Vibration    19          0.697              1.660              1.378
 Vibration    20          0.707              1.633              1.305
 Vibration    21          0.716              1.607              1.240
 Vibration    22          0.750              1.512              1.038
 Vibration    23          0.758              1.492              1.001
 Vibration    24          0.771              1.458              0.941
 Vibration    25          0.797              1.391              0.839
 Vibration    26          0.831              1.307              0.725
 Vibration    27          0.863              1.232              0.638
 Vibration    28          0.884              1.186              0.589
 Vibration    29          0.910              1.130              0.535
 Vibration    30          0.958              1.033              0.450
 Vibration    31          0.979              0.992              0.419

                           ! Non-Optimized Parameters !
 Normal termination of Gaussian 16 at Wed May 24 14:56:14 2023.
