 Gaussian 16, Revision A.03,
 Gaussian 16:  ES64L-G16RevA.03 25-Dec-2016

 -----------------------------
 # opt freq b3lyp/6-31g(2df,p)
 -----------------------------

 -------------------
 Title Card Required
 -------------------
 Symbolic Z-matrix:
 Charge =  0 Multiplicity = 1

 SCF Done:  E(RB3LYP) =  -581.616507694     A.U. after   12 cycles
 SCF Done:  E(RB3LYP) =  -581.636058273     A.U. after   11 cycles
 SCF Done:  E(RB3LYP) =  -581.642633927     A.U. after   10 cycles
 SCF Done:  E(RB3LYP) =  -581.645210782     A.U. after   10 cycles
 SCF Done:  E(RB3LYP) =  -581.646849697     A.U. after   10 cycles
 SCF Done:  E(RB3LYP) =  -581.648068557     A.U. after   11 cycles
 SCF Done:  E(RB3LYP) =  -581.648040041     A.U. after   11 cycles
 SCF Done:  E(RB3LYP) =  -581.649310633     A.U. after   10 cycles
 SCF Done:  E(RB3LYP) =  -581.650702432     A.U. after   11 cycles
 SCF Done:  E(RB3LYP) =  -581.650960007     A.U. after   10 cycles
 SCF Done:  E(RB3LYP) =  -581.652361464     A.U. after    9 cycles
 SCF Done:  E(RB3LYP) =  -581.652371847     A.U. after    8 cycles
 SCF Done:  E(RB3LYP) =  -581.652424338     A.U. after    9 cycles
 SCF Done:  E(RB3LYP) =  -581.652435345     A.U. after    9 cycles
 SCF Done:  E(RB3LYP) =  -581.652436517     A.U. after    9 cycles
 SCF Done:  E(RB3LYP) =  -581.652440544     A.U. after    9 cycles
 SCF Done:  E(RB3LYP) =  -581.652440885     A.U. after    7 cycles
 SCF Done:  E(RB3LYP) =  -581.652441280     A.U. after    8 cycles
 SCF Done:  E(RB3LYP) =  -581.652441297     A.U. after    5 cycles
 Optimization completed.
    -- Stationary point found.
 Normal termination of Gaussian 16 at Mon May 22 11:39:04 2023.

 ----------------------------------------------------------------------
 #N Geom=AllCheck Guess=TCheck SCRF=Check GenChk RB3LYP/6-31G(2df,p) Fr
 eq
 ----------------------------------------------------------------------

 Structure from the checkpoint file:  "COCC1CCCqOC2CC2CrC1.chk"
 -------------------
 Title Card Required
 -------------------
 Charge =  0 Multiplicity = 1

                         Standard orientation:
 ---------------------------------------------------------------------
 Center     Atomic      Atomic             Coordinates (Angstroms)
 Number     Number       Type             X           Y           Z
 ---------------------------------------------------------------------
      1          6           0       -4.780871   -1.407137   -0.288091
      2          8           0       -3.576623   -0.760633   -0.615656
      3          6           0       -2.706692   -0.622157    0.489108
      4          6           0       -1.447462    0.094969    0.036129
      5          6           0       -1.682035    1.529064   -0.482820
      6          6           0       -0.318605    2.251058   -0.320202
      7          6           0        0.570823    1.322776    0.539666
      8          8           0        1.514296    0.713884   -0.346365
      9          6           0        2.562125    0.041773    0.278470
     10          6           0        2.532499   -1.463772    0.436494
     11          6           0        3.433294   -0.804663   -0.592424
     12          6           0        4.936538   -0.804538   -0.431475
     13          6           0       -0.407889    0.302885    1.148920
     14          1           0       -5.380200   -1.469660   -1.199951
     15          1           0       -5.351405   -0.851589    0.473922
     16          1           0       -4.608635   -2.426698    0.093612
     17          1           0       -2.460768   -1.614732    0.906542
     18          1           0       -3.201059   -0.047928    1.294470
     19          1           0       -0.985346   -0.499354   -0.761457
     20          1           0       -2.446619    2.014122    0.136699
     21          1           0       -2.052718    1.543770   -1.509258
     22          1           0       -0.436165    3.229466    0.153393
     23          1           0        0.184408    2.412140   -1.276407
     24          1           0        1.125337    1.871580    1.314076
     25          1           0        3.046710    0.616672    1.070426
     26          1           0        1.656743   -1.985562    0.067971
     27          1           0        2.987125   -1.900689    1.320681
     28          1           0        3.076736   -0.884077   -1.615908
     29          1           0        5.221367   -0.690923    0.620096
     30          1           0        5.397685    0.016777   -0.991174
     31          1           0        5.374175   -1.742818   -0.790200
     32          1           0       -0.889166    0.753719    2.028232
     33          1           0        0.090065   -0.611768    1.477766
 ---------------------------------------------------------------------

 SCF Done:  E(RB3LYP) =  -581.652441297     A.U. after    1 cycles

 The electronic state is 1-A.
 Alpha  occ. eigenvalues --  -19.13608 -19.13401 -10.22669 -10.22505 -10.21995
 Alpha  occ. eigenvalues --  -10.21990 -10.18471 -10.17654 -10.17611 -10.17575
 Alpha  occ. eigenvalues --  -10.17296 -10.17032 -10.16917  -1.03038  -1.02724
 Alpha  occ. eigenvalues --   -0.85215  -0.82334  -0.74178  -0.70616  -0.70164
 Alpha  occ. eigenvalues --   -0.67731  -0.62603  -0.59704  -0.57074  -0.55799
 Alpha  occ. eigenvalues --   -0.55268  -0.49935  -0.48542  -0.48257  -0.47011
 Alpha  occ. eigenvalues --   -0.45856  -0.45170  -0.42676  -0.42050  -0.41667
 Alpha  occ. eigenvalues --   -0.40667  -0.39089  -0.38447  -0.36869  -0.35147
 Alpha  occ. eigenvalues --   -0.35015  -0.34741  -0.33110  -0.32938  -0.31868
 Alpha  occ. eigenvalues --   -0.30687  -0.30481  -0.29832  -0.27013  -0.24995
 Alpha  occ. eigenvalues --   -0.23193
 Alpha virt. eigenvalues --    0.08402   0.08764   0.09955   0.10704   0.11779
 Alpha virt. eigenvalues --    0.12994   0.13842   0.14051   0.14241   0.14999
 Alpha virt. eigenvalues --    0.15490   0.15847   0.16222   0.16623   0.17103

 Mulliken charges:
               1
     1  C   -0.223097
     2  O   -0.234782
     3  C   -0.078272
     4  C    0.025379
     5  C   -0.202853
     6  C   -0.241689
     7  C    0.118712
     8  O   -0.268489
     9  C    0.135075
    10  C   -0.315978
    11  C   -0.030762
    12  C   -0.408162
    13  C   -0.248766
    14  H    0.124716
    15  H    0.100470
    16  H    0.100390
    17  H    0.079482
    18  H    0.076217
    19  H    0.088241
    20  H    0.090010
    21  H    0.108935
    22  H    0.096199
    23  H    0.115657
    24  H    0.057265
    25  H    0.076953
    26  H    0.114988
    27  H    0.104746
    28  H    0.095767
    29  H    0.111473
    30  H    0.119712
    31  H    0.117226
    32  H    0.088626
    33  H    0.106611
 Sum of Mulliken charges =  -0.00000

 Dipole moment (field-independent basis, Debye):
    X=             -0.0982    Y=             -0.3356    Z=              1.6386  Tot=              1.6755
 Quadrupole moment (field-independent basis, Debye-Ang):
   XX=            -75.7363   YY=            -79.5621   ZZ=            -80.7236
   XY=              1.0405   XZ=             -1.0651   YZ=              0.8066

  Exact polarizability: 152.481  -1.088 117.785  -0.441  -0.523 105.585
 Approx polarizability: 174.610  -2.462 167.775  -1.625   0.351 166.652

                      1                      2                      3
                      A                      A                      A
 Frequencies --     23.3727                39.1445                57.1989
 Red. masses --      3.6078                 2.5516                 2.2703
 Frc consts  --      0.0012                 0.0023                 0.0044
 IR Inten    --      0.0098                 0.1319                 0.8451

                      4                      5                      6
                      A                      A                      A
 Frequencies --     84.9107               103.2748               113.3854
 Red. masses --      3.0999                 2.3656                 2.6524
 Frc consts  --      0.0132                 0.0149                 0.0201
 IR Inten    --      0.4684                 2.2338                 0.7685

                      7                      8                      9
                      A                      A                      A
 Frequencies --    139.5770               160.9882               210.7435
 Red. masses --      2.7040                 2.8691                 1.1613
 Frc consts  --      0.0310                 0.0438                 0.0304
 IR Inten    --      0.4879                 1.3770                 0.0505

                     10                     11                     12
                      A                      A                      A
 Frequencies --    229.4644               245.1717               303.8449
 Red. masses --      1.6071                 1.8803                 2.7728
 Frc consts  --      0.0499                 0.0666                 0.1508
 IR Inten    --      2.0839                 1.4147                 1.0285

                     13                     14                     15
                      A                      A                      A
 Frequencies --    318.2919               352.9012               378.2951
 Red. masses --      3.1747                 2.9159                 3.1386
 Frc consts  --      0.1895                 0.2140                 0.2646
 IR Inten    --      0.1507                 1.4687                 2.9448

                     16                     17                     18
                      A                      A                      A
 Frequencies --    415.0962               438.7079               446.8058
 Red. masses --      2.6124                 2.1294                 2.2283
 Frc consts  --      0.2652                 0.2415                 0.2621
 IR Inten    --      0.3719                 0.1434                 2.3035

                     19                     20                     21
                      A                      A                      A
 Frequencies --    509.0054               629.1191               724.0318
 Red. masses --      2.4201                 3.1041                 2.4256
 Frc consts  --      0.3694                 0.7239                 0.7492
 IR Inten    --      6.1973                 1.0486                 0.3344

                     22                     23                     24
                      A                      A                      A
 Frequencies --    765.4757               792.8260               834.1677
 Red. masses --      2.1376                 1.8254                 1.6406
 Frc consts  --      0.7380                 0.6760                 0.6726
 IR Inten    --      1.1306                 3.6595                 3.0554

                     25                     26                     27
                      A                      A                      A
 Frequencies --    856.4460               867.5558               897.1282
 Red. masses --      2.7392                 2.6689                 1.9820
 Frc consts  --      1.1838                 1.1835                 0.9399
 IR Inten    --      5.1818                 0.0821                 1.2889

                     28                     29                     30
                      A                      A                      A
 Frequencies --    910.6857               925.3154               938.9743
 Red. masses --      1.7596                 1.6218                 1.9216
 Frc consts  --      0.8598                 0.8181                 0.9982
 IR Inten    --      2.4788                 7.1291                15.2695

                     31                     32                     33
                      A                      A                      A
 Frequencies --    953.6039               985.8690               996.1331
 Red. masses --      1.9339                 2.6636                 1.9219
 Frc consts  --      1.0361                 1.5253                 1.1236
 IR Inten    --      6.2171                24.3156                 8.7785

                     34                     35                     36
                      A                      A                      A
 Frequencies --   1012.8138              1021.8153              1040.7584
 Red. masses --      1.8675                 1.9087                 1.4443
 Frc consts  --      1.1287                 1.1741                 0.9218
 IR Inten    --     26.6324                 1.5565                 9.9389

                     37                     38                     39
                      A                      A                      A
 Frequencies --   1094.0711              1096.9010              1101.9707
 Red. masses --      1.6723                 2.0170                 1.1846
 Frc consts  --      1.1794                 1.4299                 0.8475
 IR Inten    --      3.2750                18.0212                 0.1723

                     40                     41                     42
                      A                      A                      A
 Frequencies --   1112.7778              1119.4680              1133.0566
 Red. masses --      2.1758                 2.8285                 1.7741
 Frc consts  --      1.5874                 2.0885                 1.3420
 IR Inten    --      1.7786                 9.0726                18.5221

                     43                     44                     45
                      A                      A                      A
 Frequencies --   1165.5703              1181.7958              1192.1924
 Red. masses --      4.9911                 1.2573                 1.6746
 Frc consts  --      3.9950                 1.0346                 1.4023
 IR Inten    --    189.8647                 4.1336                 1.9428

                     46                     47                     48
                      A                      A                      A
 Frequencies --   1197.4015              1201.0179              1218.9751
 Red. masses --      1.9358                 2.1572                 1.4398
 Frc consts  --      1.6353                 1.8333                 1.2605
 IR Inten    --     98.9060                35.5702                20.7504

                     49                     50                     51
                      A                      A                      A
 Frequencies --   1221.7647              1232.5166              1241.0104
 Red. masses --      1.5776                 1.6077                 1.6030
 Frc consts  --      1.3875                 1.4389                 1.4546
 IR Inten    --     14.2589                11.5876                24.0525

                     52                     53                     54
                      A                      A                      A
 Frequencies --   1263.6044              1282.6191              1308.2181
 Red. masses --      1.2153                 1.4097                 1.2448
 Frc consts  --      1.1433                 1.3664                 1.2552
 IR Inten    --     15.6896                 1.6889                 4.8033

                     55                     56                     57
                      A                      A                      A
 Frequencies --   1321.6992              1324.5176              1337.5009
 Red. masses --      1.3491                 1.3602                 1.2187
 Frc consts  --      1.3886                 1.4059                 1.2845
 IR Inten    --      4.5818                 2.8003                47.4792

                     58                     59                     60
                      A                      A                      A
 Frequencies --   1355.6899              1382.6771              1392.0321
 Red. masses --      1.4169                 1.3896                 1.3984
 Frc consts  --      1.5343                 1.5652                 1.5965
 IR Inten    --      1.4726                 6.3880                30.6540

                     61                     62                     63
                      A                      A                      A
 Frequencies --   1415.8010              1424.8054              1435.1509
 Red. masses --      1.2395                 1.4536                 1.3092
 Frc consts  --      1.4639                 1.7386                 1.5887
 IR Inten    --      1.2445                32.2327                 5.5286

                     64                     65                     66
                      A                      A                      A
 Frequencies --   1478.9999              1480.7416              1481.2243
 Red. masses --      1.0886                 1.1612                 1.0990
 Frc consts  --      1.4031                 1.5000                 1.4207
 IR Inten    --      5.1387                 0.4444                 4.9138

                     67                     68                     69
                      A                      A                      A
 Frequencies --   1484.9666              1488.8245              1493.8991
 Red. masses --      1.0474                 1.3293                 1.0797
 Frc consts  --      1.3608                 1.7360                 1.4197
 IR Inten    --      4.5857                 8.8366                 6.8812

                     70                     71                     72
                      A                      A                      A
 Frequencies --   1501.0436              1505.5150              1506.8997
 Red. masses --      1.0763                 1.1471                 1.1751
 Frc consts  --      1.4288                 1.5319                 1.5722
 IR Inten    --      5.4432                13.6717                 6.9985

                     73                     74                     75
                      A                      A                      A
 Frequencies --   1526.3138              2929.9170              2958.6332
 Red. masses --      1.0914                 1.0552                 1.0988
 Frc consts  --      1.4981                 5.3370                 5.6667
 IR Inten    --      1.5738                36.1279                53.2977

                     76                     77                     78
                      A                      A                      A
 Frequencies --   2964.9289              2992.9998              3005.0837
 Red. masses --      1.0407                 1.0828                 1.1028
 Frc consts  --      5.3902                 5.7147                 5.8676
 IR Inten    --     86.0971                34.8818                58.1816

                     79                     80                     81
                      A                      A                      A
 Frequencies --   3017.6224              3024.9524              3027.0326
 Red. masses --      1.0728                 1.0352                 1.0726
 Frc consts  --      5.7557                 5.5807                 5.7905
 IR Inten    --     30.1644                40.1336                15.7407

                     82                     83                     84
                      A                      A                      A
 Frequencies --   3044.1019              3065.2803              3076.1555
 Red. masses --      1.0795                 1.0626                 1.0866
 Frc consts  --      5.8935                 5.8825                 6.0582
 IR Inten    --     46.6394                38.6680                33.0795

                     85                     86                     87
                      A                      A                      A
 Frequencies --   3088.6252              3092.0287              3101.8273
 Red. masses --      1.1011                 1.1000                 1.0968
 Frc consts  --      6.1889                 6.1965                 6.2177
 IR Inten    --     28.3454                23.2029                11.9330

                     88                     89                     90
                      A                      A                      A
 Frequencies --   3108.6944              3109.5713              3118.0473
 Red. masses --      1.0931                 1.0953                 1.1005
 Frc consts  --      6.2238                 6.2402                 6.3038
 IR Inten    --     18.5575                30.9294                31.0059

                     91                     92                     93
                      A                      A                      A
 Frequencies --   3125.0450              3149.4817              3218.0250
 Red. masses --      1.0556                 1.0880                 1.1155
 Frc consts  --      6.0736                 6.3585                 6.8062
 IR Inten    --     11.4409                12.0133                12.6915

 - Thermochemistry -
 -------------------
 Temperature   298.150 Kelvin.  Pressure   1.00000 Atm.
 Atom     1 has atomic number  6 and mass  12.00000

 Molecular mass:   184.14633 amu.
 Principal axes and moments of inertia in atomic units:
                           1         2         3
     Eigenvalues --  1138.325355551.610006195.41921
           X            0.99999  -0.00170  -0.00270
           Y            0.00168   0.99998  -0.00671
           Z            0.00271   0.00670   0.99997
 This molecule is an asymmetric top.
 Rotational symmetry number  1.
 Warning -- assumption of classical behavior for rotation
           may cause significant error
 Rotational temperatures (Kelvin)      0.07609     0.01560     0.01398
 Rotational constants (GHZ):           1.58544     0.32508     0.29130
 Zero-point vibrational energy     775444.4 (Joules/Mol)
                                  185.33567 (Kcal/Mol)
 Warning -- explicit consideration of  19 degrees of freedom as
           vibrations may cause significant error
 Vibrational temperatures:     33.63    56.32    82.30   122.17   148.59
          (Kelvin)            163.14   200.82   231.63   303.21   330.15
                              352.75   437.17   457.95   507.75   544.28
                              597.23   631.20   642.85   732.35   905.16
                             1041.72  1101.35  1140.70  1200.18  1232.23
                             1248.22  1290.77  1310.27  1331.32  1350.97
                             1372.02  1418.45  1433.21  1457.21  1470.16
                             1497.42  1574.12  1578.20  1585.49  1601.04
                             1610.66  1630.22  1677.00  1700.34  1715.30
                             1722.79  1728.00  1753.83  1757.85  1773.32
                             1785.54  1818.04  1845.40  1882.23  1901.63
                             1905.69  1924.37  1950.54  1989.36  2002.82
                             2037.02  2049.98  2064.86  2127.95  2130.46
                             2131.15  2136.54  2142.09  2149.39  2159.67
                             2166.10  2168.09  2196.03  4215.50  4256.81
                             4265.87  4306.26  4323.65  4341.69  4352.23
                             4355.22  4379.78  4410.25  4425.90  4443.84
                             4448.74  4462.84  4472.72  4473.98  4486.17
                             4496.24  4531.40  4630.02

 Zero-point correction=                           0.295351 (Hartree/Particle)
 Thermal correction to Energy=                    0.309836
 Thermal correction to Enthalpy=                  0.310780
 Thermal correction to Gibbs Free Energy=         0.252296
 Sum of electronic and zero-point Energies=           -581.357090
 Sum of electronic and thermal Energies=              -581.342605
 Sum of electronic and thermal Enthalpies=            -581.341661
 Sum of electronic and thermal Free Energies=         -581.400145

                     E (Thermal)             CV                S
                      KCal/Mol        Cal/Mol-Kelvin    Cal/Mol-Kelvin
 Total                  194.425             53.468            123.091
 Electronic               0.000              0.000              0.000
 Translational            0.889              2.981             41.538
 Rotational               0.889              2.981             32.038
 Vibrational            192.648             47.507             49.515
 Vibration     1          0.593              1.985              6.325
 Vibration     2          0.594              1.981              5.302
 Vibration     3          0.596              1.975              4.552
 Vibration     4          0.601              1.960              3.774
 Vibration     5          0.605              1.947              3.392
 Vibration     6          0.607              1.938              3.210
 Vibration     7          0.615              1.914              2.810
 Vibration     8          0.622              1.890              2.538
 Vibration     9          0.643              1.824              2.037
 Vibration    10          0.652              1.796              1.883
 Vibration    11          0.660              1.771              1.765
 Vibration    12          0.695              1.666              1.396
 Vibration    13          0.705              1.639              1.319
 Vibration    14          0.729              1.569              1.153
 Vibration    15          0.749              1.516              1.046
 Vibration    16          0.778              1.437              0.909
 Vibration    17          0.799              1.386              0.831
 Vibration    18          0.806              1.368              0.805
 Vibration    19          0.864              1.230              0.636

 Optimization completed.
    -- Stationary point found.
 Normal termination of Gaussian 16 at Mon May 22 13:23:15 2023.
