 Gaussian 16, Revision A.03,
 Gaussian 16:  ES64L-G16RevA.03 25-Dec-2016

 -----------------------------
 # opt freq b3lyp/6-31g(2df,p)
 -----------------------------

 -------------------
 Title Card Required
 -------------------
 Symbolic Z-matrix:
 Charge =  0 Multiplicity = 1

 SCF Done:  E(RB3LYP) =  -700.810605069     A.U. after   12 cycles
 SCF Done:  E(RB3LYP) =  -700.819978517     A.U. after   11 cycles
 SCF Done:  E(RB3LYP) =  -700.823247367     A.U. after   10 cycles
 SCF Done:  E(RB3LYP) =  -700.824778769     A.U. after   10 cycles
 SCF Done:  E(RB3LYP) =  -700.825923877     A.U. after   10 cycles
 SCF Done:  E(RB3LYP) =  -700.826273900     A.U. after   10 cycles
 SCF Done:  E(RB3LYP) =  -700.826322070     A.U. after    9 cycles
 SCF Done:  E(RB3LYP) =  -700.826337779     A.U. after    8 cycles
 SCF Done:  E(RB3LYP) =  -700.826340854     A.U. after    7 cycles
 SCF Done:  E(RB3LYP) =  -700.826341434     A.U. after    7 cycles
 SCF Done:  E(RB3LYP) =  -700.826341670     A.U. after    6 cycles
 Optimization completed.
    -- Stationary point found.
 Normal termination of Gaussian 16 at Mon May 22 22:40:45 2023.

 ----------------------------------------------------------------------
 #N Geom=AllCheck Guess=TCheck SCRF=Check GenChk RB3LYP/6-31G(2df,p) Fr
 eq
 ----------------------------------------------------------------------

 Structure from the checkpoint file:  "COCCCCC1CCCCCOCqCrC1.chk"
 -------------------
 Title Card Required
 -------------------
 Charge =  0 Multiplicity = 1

                         Standard orientation:
 ---------------------------------------------------------------------
 Center     Atomic      Atomic             Coordinates (Angstroms)
 Number     Number       Type             X           Y           Z
 ---------------------------------------------------------------------
      1          6           0        6.374782    0.314665    0.526586
      2          8           0        5.096432   -0.149166    0.880863
      3          6           0        4.148157    0.007588   -0.153056
      4          6           0        2.804406   -0.522051    0.328030
      5          6           0        1.701187   -0.396754   -0.727690
      6          6           0        0.352491   -0.957099   -0.250587
      7          6           0       -0.772812   -0.847508   -1.306264
      8          6           0       -1.880855   -1.936356   -1.163562
      9          6           0       -3.113116   -1.706846   -0.269515
     10          6           0       -2.854851   -1.455037    1.235400
     11          6           0       -3.519783   -0.180100    1.783622
     12          6           0       -3.155590    1.075254    0.990410
     13          8           0       -1.743828    1.153676    0.876940
     14          6           0       -1.197382    1.611547   -0.358653
     15          6           0       -1.724806    2.995344   -0.755904
     16          6           0       -1.316290    0.601332   -1.520698
     17          1           0        7.033507    0.152129    1.383507
     18          1           0        6.369237    1.389694    0.282890
     19          1           0        6.782918   -0.227647   -0.341993
     20          1           0        4.475174   -0.536262   -1.057453
     21          1           0        4.063646    1.072301   -0.435970
     22          1           0        2.520065    0.021782    1.236968
     23          1           0        2.927942   -1.572204    0.619933
     24          1           0        2.005506   -0.927504   -1.641104
     25          1           0        1.595494    0.657467   -1.016838
     26          1           0        0.060213   -0.466885    0.682284
     27          1           0        0.496890   -2.018006   -0.009078
     28          1           0       -0.288889   -1.115913   -2.255763
     29          1           0       -1.387183   -2.867526   -0.855319
     30          1           0       -2.267777   -2.132788   -2.172588
     31          1           0       -3.754958   -2.588149   -0.386065
     32          1           0       -3.702089   -0.884230   -0.689368
     33          1           0       -1.782199   -1.385145    1.423289
     34          1           0       -3.208499   -2.309695    1.822558
     35          1           0       -3.222689   -0.043303    2.830064
     36          1           0       -4.613537   -0.279362    1.777722
     37          1           0       -3.544165    1.971005    1.497805
     38          1           0       -3.628263    1.044724    0.001685
     39          1           0       -0.134479    1.726027   -0.120806
     40          1           0       -2.776942    2.963199   -1.056762
     41          1           0       -1.152257    3.393742   -1.599238
     42          1           0       -1.627875    3.690735    0.082928
     43          1           0       -0.773838    1.060018   -2.356438
     44          1           0       -2.359003    0.551841   -1.857983
 ---------------------------------------------------------------------

 SCF Done:  E(RB3LYP) =  -700.826341670     A.U. after    1 cycles

 The electronic state is 1-A.
 Alpha  occ. eigenvalues --  -19.13205 -19.12822 -10.22790 -10.21953 -10.21856
 Alpha  occ. eigenvalues --  -10.21845 -10.18118 -10.17546 -10.17538 -10.17336
 Alpha  occ. eigenvalues --  -10.17321 -10.17213 -10.17207 -10.17100 -10.16760
 Alpha  occ. eigenvalues --  -10.16680  -1.02572  -1.01948  -0.81322  -0.79497
 Alpha  occ. eigenvalues --   -0.78252  -0.74501  -0.72792  -0.70570  -0.67688
 Alpha  occ. eigenvalues --   -0.66537  -0.62811  -0.60452  -0.59260  -0.57655
 Alpha  occ. eigenvalues --   -0.54192  -0.53586  -0.49634  -0.48373  -0.47656
 Alpha  occ. eigenvalues --   -0.47127  -0.46061  -0.45000  -0.44055  -0.43557
 Alpha  occ. eigenvalues --   -0.43299  -0.41914  -0.40907  -0.40156  -0.39215
 Alpha  occ. eigenvalues --   -0.38204  -0.38112  -0.37724  -0.36701  -0.36217
 Alpha  occ. eigenvalues --   -0.35049  -0.34702  -0.33665  -0.33129  -0.32723
 Alpha  occ. eigenvalues --   -0.32213  -0.31822  -0.30995  -0.30168  -0.29221
 Alpha  occ. eigenvalues --   -0.28952  -0.28476  -0.24832  -0.24141
 Alpha virt. eigenvalues --    0.07110   0.08700   0.09547   0.09740   0.10678
 Alpha virt. eigenvalues --    0.11430   0.12371   0.12589   0.13068   0.13914
 Alpha virt. eigenvalues --    0.14237   0.15241   0.15603   0.15909   0.16118

 Mulliken charges:
               1
     1  C   -0.225759
     2  O   -0.229674
     3  C   -0.049879
     4  C   -0.198236
     5  C   -0.195646
     6  C   -0.206147
     7  C    0.029937
     8  C   -0.233474
     9  C   -0.185396
    10  C   -0.178418
    11  C   -0.212540
    12  C   -0.060201
    13  O   -0.262935
    14  C    0.140899
    15  C   -0.409646
    16  C   -0.237534
    17  H    0.124292
    18  H    0.099858
    19  H    0.099832
    20  H    0.079770
    21  H    0.079255
    22  H    0.107818
    23  H    0.103807
    24  H    0.089240
    25  H    0.093712
    26  H    0.130107
    27  H    0.081305
    28  H    0.069823
    29  H    0.090299
    30  H    0.086992
    31  H    0.089214
    32  H    0.088895
    33  H    0.119717
    34  H    0.086669
    35  H    0.100117
    36  H    0.089788
    37  H    0.087968
    38  H    0.092151
    39  H    0.085682
    40  H    0.116142
    41  H    0.113825
    42  H    0.120574
    43  H    0.095659
    44  H    0.092133
 Sum of Mulliken charges =  -0.00000

 Dipole moment (field-independent basis, Debye):
    X=             -0.5243    Y=              0.6320    Z=             -1.7134  Tot=              1.9000
 Quadrupole moment (field-independent basis, Debye-Ang):
   XX=            -96.0298   YY=           -101.3692   ZZ=           -104.1377
   XY=              1.6464   XZ=             -3.6918   YZ=             -0.6709

  Exact polarizability: 183.939   3.842 153.567  -5.296  -0.131 142.313
 Approx polarizability: 224.282   1.271 215.645  -1.763  -1.365 217.017

                      1                      2                      3
                      A                      A                      A
 Frequencies --     30.2435                42.2964                50.2803
 Red. masses --      3.8654                 3.7171                 1.8270
 Frc consts  --      0.0021                 0.0039                 0.0027
 IR Inten    --      0.0183                 0.0831                 2.2887

                      4                      5                      6
                      A                      A                      A
 Frequencies --     87.5018                92.1818               115.9286
 Red. masses --      2.9093                 3.4236                 2.7919
 Frc consts  --      0.0131                 0.0171                 0.0221
 IR Inten    --      0.0187                 0.7692                 0.5865

                      7                      8                      9
                      A                      A                      A
 Frequencies --    130.4510               151.3462               165.2018
 Red. masses --      2.1677                 2.4150                 2.9202
 Frc consts  --      0.0217                 0.0326                 0.0470
 IR Inten    --      2.6560                 0.3059                 0.8618

                     10                     11                     12
                      A                      A                      A
 Frequencies --    179.4331               196.8200               217.8584
 Red. masses --      2.8099                 2.3705                 3.0759
 Frc consts  --      0.0533                 0.0541                 0.0860
 IR Inten    --      0.5289                 0.7086                 0.5659

                     13                     14                     15
                      A                      A                      A
 Frequencies --    221.8189               234.5188               236.9243
 Red. masses --      2.6544                 1.1024                 1.2657
 Frc consts  --      0.0770                 0.0357                 0.0419
 IR Inten    --      2.0643                 0.1328                 2.4266

                     16                     17                     18
                      A                      A                      A
 Frequencies --    249.8743               281.5655               320.8446
 Red. masses --      2.4252                 2.1391                 2.7460
 Frc consts  --      0.0892                 0.0999                 0.1666
 IR Inten    --      0.5157                 0.5382                 1.1525

                     19                     20                     21
                      A                      A                      A
 Frequencies --    334.7248               354.8488               377.2015
 Red. masses --      2.2236                 2.2268                 2.8922
 Frc consts  --      0.1468                 0.1652                 0.2425
 IR Inten    --      0.2661                 0.4857                 1.8883

                     22                     23                     24
                      A                      A                      A
 Frequencies --    389.3774               436.1574               490.1557
 Red. masses --      2.3093                 3.3892                 2.6723
 Frc consts  --      0.2063                 0.3799                 0.3783
 IR Inten    --      1.7561                 5.6636                 1.3259

                     25                     26                     27
                      A                      A                      A
 Frequencies --    510.5705               516.5251               550.2907
 Red. masses --      2.5975                 2.8220                 2.2106
 Frc consts  --      0.3989                 0.4436                 0.3944
 IR Inten    --      0.4681                 4.2857                 0.6917

                     28                     29                     30
                      A                      A                      A
 Frequencies --    624.7855               725.6174               744.6508
 Red. masses --      2.2899                 1.4315                 1.0976
 Frc consts  --      0.5267                 0.4441                 0.3586
 IR Inten    --      2.6118                 4.4533                 2.3477

                     31                     32                     33
                      A                      A                      A
 Frequencies --    752.2562               784.5638               802.8639
 Red. masses --      2.6348                 2.4995                 1.2761
 Frc consts  --      0.8785                 0.9065                 0.4847
 IR Inten    --      0.0532                 1.6336                 0.3042

                     34                     35                     36
                      A                      A                      A
 Frequencies --    836.1244               839.2289               887.5725
 Red. masses --      1.9081                 2.2092                 1.8195
 Frc consts  --      0.7859                 0.9167                 0.8445
 IR Inten    --      0.0424                 4.9370                 2.5546

                     37                     38                     39
                      A                      A                      A
 Frequencies --    903.2512               915.8007               943.2817
 Red. masses --      1.7863                 1.8439                 1.6629
 Frc consts  --      0.8586                 0.9111                 0.8718
 IR Inten    --      1.7281                 4.2153                 1.8934

                     40                     41                     42
                      A                      A                      A
 Frequencies --    960.7648               979.3700               997.6578
 Red. masses --      2.1453                 3.9492                 1.7090
 Frc consts  --      1.1667                 2.2318                 1.0022
 IR Inten    --      8.1523                24.0252                 5.1247

                     43                     44                     45
                      A                      A                      A
 Frequencies --   1016.3695              1035.7987              1040.7947
 Red. masses --      2.1834                 2.3223                 2.8491
 Frc consts  --      1.3289                 1.4680                 1.8184
 IR Inten    --      7.2712                12.7165                 3.2624

                     46                     47                     48
                      A                      A                      A
 Frequencies --   1054.0147              1060.8134              1075.2420
 Red. masses --      2.4324                 2.4386                 2.2604
 Frc consts  --      1.5922                 1.6168                 1.5397
 IR Inten    --      0.7552                 2.8000                 1.5365

                     49                     50                     51
                      A                      A                      A
 Frequencies --   1086.8111              1101.1447              1107.6332
 Red. masses --      2.4486                 2.1842                 1.5735
 Frc consts  --      1.7040                 1.5604                 1.1374
 IR Inten    --     14.4146                14.8302                15.7361

                     52                     53                     54
                      A                      A                      A
 Frequencies --   1122.5792              1140.6212              1164.7946
 Red. masses --      2.4076                 2.3594                 2.7315
 Frc consts  --      1.7876                 1.8086                 2.1835
 IR Inten    --     10.7931                 5.6386                77.7908

                     55                     56                     57
                      A                      A                      A
 Frequencies --   1165.4246              1173.2815              1181.3328
 Red. masses --      5.2720                 1.9074                 1.4487
 Frc consts  --      4.2188                 1.5470                 1.1912
 IR Inten    --    186.5061                30.5221                16.9210

                     58                     59                     60
                      A                      A                      A
 Frequencies --   1198.8093              1216.7969              1221.8432
 Red. masses --      1.1904                 1.4305                 1.4890
 Frc consts  --      1.0080                 1.2479                 1.3097
 IR Inten    --      1.2962                 9.2064                27.1650

                     61                     62                     63
                      A                      A                      A
 Frequencies --   1239.7086              1261.0127              1266.6226
 Red. masses --      1.4140                 1.3644                 1.2189
 Frc consts  --      1.2804                 1.2783                 1.1521
 IR Inten    --      8.6441                 6.2008                 4.7284

                     64                     65                     66
                      A                      A                      A
 Frequencies --   1273.0379              1283.9900              1300.4706
 Red. masses --      1.2738                 1.2408                 1.2445
 Frc consts  --      1.2163                 1.2052                 1.2401
 IR Inten    --      5.3557                 6.3505                 1.0091

                     67                     68                     69
                      A                      A                      A
 Frequencies --   1311.7192              1317.4353              1326.7543
 Red. masses --      1.1221                 1.1517                 1.1442
 Frc consts  --      1.1375                 1.1777                 1.1867
 IR Inten    --      0.0860                 2.8113                 2.1098

                     70                     71                     72
                      A                      A                      A
 Frequencies --   1331.2607              1339.8177              1345.3714
 Red. masses --      1.2012                 1.1965                 1.2857
 Frc consts  --      1.2543                 1.2655                 1.3711
 IR Inten    --      0.2872                 1.3773                 0.7169

                     73                     74                     75
                      A                      A                      A
 Frequencies --   1365.0074              1376.4876              1378.1718
 Red. masses --      1.3226                 1.3559                 1.3826
 Frc consts  --      1.4520                 1.5136                 1.5472
 IR Inten    --      6.6885                 2.3098                 1.9676

                     76                     77                     78
                      A                      A                      A
 Frequencies --   1388.6947              1396.4448              1400.1775
 Red. masses --      1.4640                 1.3903                 1.2528
 Frc consts  --      1.6634                 1.5974                 1.4471
 IR Inten    --      2.4063                 1.1584                 4.0863

                     79                     80                     81
                      A                      A                      A
 Frequencies --   1404.2560              1409.3905              1413.9001
 Red. masses --      1.3508                 1.3254                 1.2715
 Frc consts  --      1.5694                 1.5512                 1.4976
 IR Inten    --      2.8177                12.5497                 9.1065

                     82                     83                     84
                      A                      A                      A
 Frequencies --   1422.0215              1427.7943              1478.8059
 Red. masses --      1.2915                 1.4013                 1.0817
 Frc consts  --      1.5387                 1.6831                 1.3938
 IR Inten    --     12.7691                32.7761                 1.5614

                     85                     86                     87
                      A                      A                      A
 Frequencies --   1479.1528              1481.6729              1483.6642
 Red. masses --      1.0852                 1.1680                 1.0822
 Frc consts  --      1.3989                 1.5108                 1.4035
 IR Inten    --      2.4548                 0.5331                 0.6563

                     88                     89                     90
                      A                      A                      A
 Frequencies --   1485.0798              1488.2795              1491.8591
 Red. masses --      1.0469                 1.0723                 1.0620
 Frc consts  --      1.3604                 1.3993                 1.3926
 IR Inten    --      4.6030                 0.3309                 2.1756

                     91                     92                     93
                      A                      A                      A
 Frequencies --   1494.9537              1496.2959              1498.4652
 Red. masses --      1.0748                 1.0804                 1.0872
 Frc consts  --      1.4152                 1.4251                 1.4383
 IR Inten    --      8.0587                 2.6678                 1.8525

                     94                     95                     96
                      A                      A                      A
 Frequencies --   1501.0719              1505.4294              1514.5897
 Red. masses --      1.0624                 1.0670                 1.0906
 Frc consts  --      1.4104                 1.4248                 1.4740
 IR Inten    --      4.0279                10.9962                 1.7081

                     97                     98                     99
                      A                      A                      A
 Frequencies --   1527.5779              1532.7863              2935.0623
 Red. masses --      1.0820                 1.0957                 1.0525
 Frc consts  --      1.4876                 1.5167                 5.3422
 IR Inten    --      7.6910                 1.0219                34.4364

                    100                    101                    102
                      A                      A                      A
 Frequencies --   2959.7601              2963.9064              2982.6191
 Red. masses --      1.1045                 1.0386                 1.0792
 Frc consts  --      5.7005                 5.3756                 5.6567
 IR Inten    --     55.1212                80.5573                 7.1548

                    103                    104                    105
                      A                      A                      A
 Frequencies --   2987.6664              3002.9380              3003.4875
 Red. masses --      1.0661                 1.0595                 1.1028
 Frc consts  --      5.6066                 5.6294                 5.8612
 IR Inten    --     49.3749                12.1271                60.2772

                    106                    107                    108
                      A                      A                      A
 Frequencies --   3007.4535              3017.9900              3020.7741
 Red. masses --      1.0648                 1.0745                 1.0622
 Frc consts  --      5.6742                 5.7664                 5.7107
 IR Inten    --     49.1012                10.6326                40.9206

                    109                    110                    111
                      A                      A                      A
 Frequencies --   3025.8372              3029.1099              3029.7717
 Red. masses --      1.0626                 1.0719                 1.0668
 Frc consts  --      5.7319                 5.7948                 5.7697
 IR Inten    --      4.7301                12.6980                18.6966

                    112                    113                    114
                      A                      A                      A
 Frequencies --   3034.8514              3035.4221              3037.8355
 Red. masses --      1.0725                 1.0851                 1.0775
 Frc consts  --      5.8202                 5.8907                 5.8584
 IR Inten    --     51.4114                 4.5048                84.3909

                    115                    116                    117
                      A                      A                      A
 Frequencies --   3039.9778              3044.3205              3050.1516
 Red. masses --      1.0707                 1.0880                 1.0716
 Frc consts  --      5.8297                 5.9409                 5.8741
 IR Inten    --      2.5715                13.6185                31.9266

                    118                    119                    120
                      A                      A                      A
 Frequencies --   3060.2439              3062.7306              3070.6707
 Red. masses --      1.0956                 1.0982                 1.0964
 Frc consts  --      6.0455                 6.0697                 6.0907
 IR Inten    --     65.8621                25.9432                84.8570

                    121                    122                    123
                      A                      A                      A
 Frequencies --   3073.5953              3094.9709              3107.6617
 Red. masses --      1.1033                 1.0953                 1.1004
 Frc consts  --      6.1411                 6.1817                 6.2613
 IR Inten    --     38.1512                33.8373                42.0591

                    124                    125                    126
                      A                      A                      A
 Frequencies --   3109.0789              3114.2312              3117.8542
 Red. masses --      1.0952                 1.1021                 1.0910
 Frc consts  --      6.2375                 6.2978                 6.2486
 IR Inten    --     33.3210                22.3768                25.8629

 - Thermochemistry -
 -------------------
 Temperature   298.150 Kelvin.  Pressure   1.00000 Atm.
 Atom     1 has atomic number  6 and mass  12.00000

 Molecular mass:   228.20893 amu.
 Principal axes and moments of inertia in atomic units:
                           1         2         3
     Eigenvalues --  2234.951098734.857059319.41497
           X            0.99999   0.00322  -0.00337
           Y           -0.00331   0.99966  -0.02579
           Z            0.00328   0.02580   0.99966
 This molecule is an asymmetric top.
 Rotational symmetry number  1.
 Warning -- assumption of classical behavior for rotation
           may cause significant error
 Rotational temperatures (Kelvin)      0.03875     0.00992     0.00929
 Rotational constants (GHZ):           0.80751     0.20661     0.19365
 Zero-point vibrational energy    1066387.3 (Joules/Mol)
                                  254.87269 (Kcal/Mol)
 Warning -- explicit consideration of  27 degrees of freedom as
           vibrations may cause significant error
 Vibrational temperatures:     43.51    60.86    72.34   125.90   132.63
          (Kelvin)            166.80   187.69   217.75   237.69   258.16
                              283.18   313.45   319.15   337.42   340.88
                              359.51   405.11   461.62   481.59   510.55
                              542.71   560.23   627.53   705.22   734.60
                              743.16   791.75   898.93  1044.00  1071.39
                             1082.33  1128.81  1155.14  1203.00  1207.46
                             1277.02  1299.58  1317.63  1357.17  1382.33
                             1409.10  1435.41  1462.33  1490.28  1497.47
                             1516.49  1526.27  1547.03  1563.68  1584.30
                             1593.64  1615.14  1641.10  1675.88  1676.79
                             1688.09  1699.67  1724.82  1750.70  1757.96
                             1783.66  1814.32  1822.39  1831.62  1847.38
                             1871.09  1887.27  1895.50  1908.90  1915.39
                             1927.70  1935.69  1963.94  1980.46  1982.88
                             1998.02  2009.17  2014.54  2020.41  2027.80
                             2034.29  2045.97  2054.28  2127.67  2128.17
                             2131.80  2134.66  2136.70  2141.30  2146.45
                             2150.90  2152.84  2155.96  2159.71  2165.98
                             2179.16  2197.84  2205.34  4222.90  4258.43
                             4264.40  4291.32  4298.59  4320.56  4321.35
                             4327.05  4342.21  4346.22  4353.50  4358.21
                             4359.17  4366.47  4367.30  4370.77  4373.85
                             4380.10  4388.49  4403.01  4406.59  4418.01
                             4422.22  4452.97  4471.23  4473.27  4480.68
                             4485.90

 Zero-point correction=                           0.406165 (Hartree/Particle)
 Thermal correction to Energy=                    0.424563
 Thermal correction to Enthalpy=                  0.425507
 Thermal correction to Gibbs Free Energy=         0.359425
 Sum of electronic and zero-point Energies=           -700.420176
 Sum of electronic and thermal Energies=              -700.401779
 Sum of electronic and thermal Enthalpies=            -700.400835
 Sum of electronic and thermal Free Energies=         -700.466917

                     E (Thermal)             CV                S
                      KCal/Mol        Cal/Mol-Kelvin    Cal/Mol-Kelvin
 Total                  266.417             69.692            139.081
 Electronic               0.000              0.000              0.000
 Translational            0.889              2.981             42.177
 Rotational               0.889              2.981             33.564
 Vibrational            264.640             63.731             63.339
 Vibration     1          0.594              1.984              5.813
 Vibration     2          0.595              1.980              5.149
 Vibration     3          0.595              1.977              4.806
 Vibration     4          0.601              1.958              3.715
 Vibration     5          0.602              1.955              3.613
 Vibration     6          0.608              1.936              3.167
 Vibration     7          0.612              1.923              2.939
 Vibration     8          0.619              1.901              2.655
 Vibration     9          0.624              1.885              2.489
 Vibration    10          0.629              1.868              2.334
 Vibration    11          0.636              1.844              2.163
 Vibration    12          0.646              1.814              1.977
 Vibration    13          0.648              1.808              1.944
 Vibration    14          0.654              1.788              1.844
 Vibration    15          0.656              1.784              1.826
 Vibration    16          0.663              1.763              1.731
 Vibration    17          0.681              1.708              1.524
 Vibration    18          0.706              1.634              1.306
 Vibration    19          0.716              1.606              1.237
 Vibration    20          0.731              1.565              1.145
 Vibration    21          0.748              1.519              1.050
 Vibration    22          0.757              1.493              1.003
 Vibration    23          0.797              1.391              0.839
 Vibration    24          0.846              1.272              0.683
 Vibration    25          0.866              1.227              0.632
 Vibration    26          0.872              1.213              0.618
 Vibration    27          0.906              1.139              0.544

                           ! Non-Optimized Parameters !
 Normal termination of Gaussian 16 at Tue May 23 03:37:59 2023.
