 Gaussian 16, Revision A.03,
 Gaussian 16:  ES64L-G16RevA.03 25-Dec-2016

 -----------------------------
 # opt freq b3lyp/6-31g(2df,p)
 -----------------------------

 -------------------
 Title Card Required
 -------------------
 Symbolic Z-matrix:
 Charge =  0 Multiplicity = 1

 SCF Done:  E(RB3LYP) =  -852.493905233     A.U. after   12 cycles
 SCF Done:  E(RB3LYP) =  -852.502487527     A.U. after   12 cycles
 SCF Done:  E(RB3LYP) =  -852.503791400     A.U. after   10 cycles
 SCF Done:  E(RB3LYP) =  -852.503929469     A.U. after    9 cycles
 SCF Done:  E(RB3LYP) =  -852.503950801     A.U. after    9 cycles
 SCF Done:  E(RB3LYP) =  -852.503955995     A.U. after    8 cycles
 SCF Done:  E(RB3LYP) =  -852.503958739     A.U. after    8 cycles
 SCF Done:  E(RB3LYP) =  -852.503960022     A.U. after    8 cycles
 SCF Done:  E(RB3LYP) =  -852.503960405     A.U. after    7 cycles
 SCF Done:  E(RB3LYP) =  -852.503960455     A.U. after    6 cycles
 SCF Done:  E(RB3LYP) =  -852.503960468     A.U. after    5 cycles
 SCF Done:  E(RB3LYP) =  -852.503960467     A.U. after    6 cycles
 SCF Done:  E(RB3LYP) =  -852.503960460     A.U. after    6 cycles
 SCF Done:  E(RB3LYP) =  -852.503960454     A.U. after    6 cycles
 SCF Done:  E(RB3LYP) =  -852.503960447     A.U. after    6 cycles
 Optimization completed.
    -- Stationary point found.
 Normal termination of Gaussian 16 at Mon May 22 09:07:53 2023.

 ----------------------------------------------------------------------
 #N Geom=AllCheck Guess=TCheck SCRF=Check GenChk RB3LYP/6-31G(2df,p) Fr
 eq
 ----------------------------------------------------------------------

 Structure from the checkpoint file:  "COCCCCCCqOrOCCCOCqCrqCrC.chk"
 -------------------
 Title Card Required
 -------------------
 Charge =  0 Multiplicity = 1

                         Standard orientation:
 ---------------------------------------------------------------------
 Center     Atomic      Atomic             Coordinates (Angstroms)
 Number     Number       Type             X           Y           Z
 ---------------------------------------------------------------------
      1          6           0        9.349640   -0.724307   -0.065283
      2          8           0        8.189299    0.004307    0.248407
      3          6           0        7.003983   -0.652230   -0.146312
      4          6           0        5.812298    0.214274    0.237008
      5          6           0        4.470518   -0.414781   -0.150355
      6          6           0        3.268257    0.455477    0.230701
      7          6           0        1.926381   -0.173953   -0.152132
      8          6           0        0.726724    0.702375    0.197554
      9          8           0        0.773579    1.970382   -0.424834
     10          8           0       -0.425320   -0.014837   -0.161541
     11          6           0       -1.641307    0.561913    0.295996
     12          6           0       -2.792922   -0.297975   -0.203780
     13          6           0       -4.150310    0.233445    0.244262
     14          8           0       -5.135049   -0.633485   -0.278674
     15          6           0       -6.516644   -0.347873   -0.008097
     16          6           0       -6.807217   -0.387298    1.501113
     17          6           0       -6.931195    1.005076   -0.609386
     18          6           0       -7.257873   -1.486918   -0.716013
     19          1           0       10.207875   -0.140009    0.276172
     20          1           0        9.446537   -0.895901   -1.149763
     21          1           0        9.366806   -1.705679    0.436244
     22          1           0        6.933398   -1.641092    0.341259
     23          1           0        7.012230   -0.835192   -1.235836
     24          1           0        5.922830    1.193151   -0.245230
     25          1           0        5.846077    0.394610    1.318400
     26          1           0        4.373902   -1.399061    0.328790
     27          1           0        4.452314   -0.603644   -1.232960
     28          1           0        3.353691    1.438263   -0.247202
     29          1           0        3.286067    0.644020    1.312991
     30          1           0        1.796666   -1.140654    0.347613
     31          1           0        1.891185   -0.378494   -1.231691
     32          1           0        0.711469    0.934922    1.274304
     33          1           0        0.808514    1.813968   -1.376878
     34          1           0       -1.730022    1.593072   -0.071577
     35          1           0       -1.637999    0.607037    1.398252
     36          1           0       -2.668900   -1.323664    0.159058
     37          1           0       -2.766977   -0.340478   -1.297773
     38          1           0       -4.287183    1.263464   -0.120394
     39          1           0       -4.192840    0.271472    1.344078
     40          1           0       -6.332577    0.442148    2.033480
     41          1           0       -6.447631   -1.326318    1.932633
     42          1           0       -7.884389   -0.316995    1.681189
     43          1           0       -6.456395    1.846445   -0.096237
     44          1           0       -8.013929    1.140950   -0.526136
     45          1           0       -6.660119    1.048471   -1.668563
     46          1           0       -6.943620   -2.452040   -0.308974
     47          1           0       -7.029228   -1.478610   -1.785385
     48          1           0       -8.339835   -1.388436   -0.588387
 ---------------------------------------------------------------------

 SCF Done:  E(RB3LYP) =  -852.503960447     A.U. after    1 cycles

 The electronic state is 1-A.
 Alpha  occ. eigenvalues --  -19.13976 -19.13819 -19.13391 -19.12764 -10.27141
 Alpha  occ. eigenvalues --  -10.23605 -10.22301 -10.22193 -10.22172 -10.22001
 Alpha  occ. eigenvalues --  -10.18016 -10.17845 -10.17790 -10.17537 -10.17494
 Alpha  occ. eigenvalues --  -10.17137 -10.17126 -10.16706  -1.05992  -1.02760
 Alpha  occ. eigenvalues --   -1.02030  -0.99473  -0.80654  -0.80134  -0.77318
 Alpha  occ. eigenvalues --   -0.75542  -0.71132  -0.68870  -0.68789  -0.67176
 Alpha  occ. eigenvalues --   -0.64527  -0.61635  -0.59758  -0.58474  -0.57795
 Alpha  occ. eigenvalues --   -0.54907  -0.51122  -0.49506  -0.48596  -0.48179
 Alpha  occ. eigenvalues --   -0.47865  -0.47348  -0.45890  -0.45189  -0.44801
 Alpha  occ. eigenvalues --   -0.44272  -0.44212  -0.42319  -0.41507  -0.40488
 Alpha  occ. eigenvalues --   -0.40153  -0.38903  -0.38633  -0.38330  -0.37462
 Alpha  occ. eigenvalues --   -0.37245  -0.36464  -0.36321  -0.35172  -0.34625
 Alpha  occ. eigenvalues --   -0.33734  -0.33625  -0.33260  -0.33148  -0.32538
 Alpha  occ. eigenvalues --   -0.32248  -0.31014  -0.30273  -0.29292  -0.28344
 Alpha  occ. eigenvalues --   -0.26436  -0.25015  -0.24637
 Alpha virt. eigenvalues --    0.07843   0.07961   0.09224   0.09919   0.09954
 Alpha virt. eigenvalues --    0.10627   0.11704   0.12357   0.12717   0.13257
 Alpha virt. eigenvalues --    0.13443   0.13697   0.14177   0.15296   0.15497

 Mulliken charges:
               1
     1  C   -0.226347
     2  O   -0.230049
     3  C   -0.049393
     4  C   -0.198099
     5  C   -0.185813
     6  C   -0.176181
     7  C   -0.231103
     8  C    0.192865
     9  O   -0.411462
    10  O   -0.250671
    11  C   -0.069973
    12  C   -0.205512
    13  C   -0.070991
    14  O   -0.287708
    15  C    0.372572
    16  C   -0.413584
    17  C   -0.413247
    18  C   -0.395718
    19  H    0.124811
    20  H    0.100526
    21  H    0.100627
    22  H    0.080828
    23  H    0.080479
    24  H    0.105165
    25  H    0.104738
    26  H    0.094170
    27  H    0.092686
    28  H    0.105755
    29  H    0.095221
    30  H    0.106891
    31  H    0.093251
    32  H    0.074426
    33  H    0.277665
    34  H    0.103335
    35  H    0.085251
    36  H    0.111603
    37  H    0.110185
    38  H    0.085602
    39  H    0.085082
    40  H    0.113219
    41  H    0.118509
    42  H    0.113373
    43  H    0.113414
    44  H    0.113300
    45  H    0.118321
    46  H    0.117570
    47  H    0.117507
    48  H    0.106900
 Sum of Mulliken charges =  -0.00000

 Dipole moment (field-independent basis, Debye):
    X=             -0.6100    Y=             -0.4732    Z=             -0.2351  Tot=              0.8070
 Quadrupole moment (field-independent basis, Debye-Ang):
   XX=           -103.7518   YY=           -117.8882   ZZ=           -110.4440
   XY=            -11.9377   XZ=             -7.2755   YZ=             -2.6045

  Exact polarizability: 231.382   0.168 148.832  -0.063  -0.088 147.844
 Approx polarizability: 239.860   1.736 225.998  -0.272   1.234 227.058

                      1                      2                      3
                      A                      A                      A
 Frequencies --     11.2995                16.0471                23.5615
 Red. masses --      3.3540                 3.5756                 3.5447
 Frc consts  --      0.0003                 0.0005                 0.0012
 IR Inten    --      0.2617                 0.2744                 0.3407

                      4                      5                      6
                      A                      A                      A
 Frequencies --     33.2533                47.4810                60.3152
 Red. masses --      3.0922                 2.2525                 2.6008
 Frc consts  --      0.0020                 0.0030                 0.0056
 IR Inten    --      0.2065                 1.7814                 0.3679

                      7                      8                      9
                      A                      A                      A
 Frequencies --     63.9323                68.4994                91.0338
 Red. masses --      3.8875                 2.4109                 2.9450
 Frc consts  --      0.0094                 0.0067                 0.0144
 IR Inten    --      0.0863                 0.5439                 0.4673

                     10                     11                     12
                      A                      A                      A
 Frequencies --    108.0434               123.5013               133.6828
 Red. masses --      2.0171                 3.6536                 2.1726
 Frc consts  --      0.0139                 0.0328                 0.0229
 IR Inten    --      1.6627                 1.4711                 1.2523

                     13                     14                     15
                      A                      A                      A
 Frequencies --    136.5860               144.4242               154.9606
 Red. masses --      2.3432                 3.8713                 2.3414
 Frc consts  --      0.0258                 0.0476                 0.0331
 IR Inten    --      0.7275                 0.3451                 0.1315

                     16                     17                     18
                      A                      A                      A
 Frequencies --    171.7026               194.9127               202.3265
 Red. masses --      2.8113                 3.6557                 1.1101
 Frc consts  --      0.0488                 0.0818                 0.0268
 IR Inten    --      4.3162                 1.2151                 0.5157

                     19                     20                     21
                      A                      A                      A
 Frequencies --    236.6759               245.8554               261.4156
 Red. masses --      1.2574                 1.7809                 1.1390
 Frc consts  --      0.0415                 0.0634                 0.0459
 IR Inten    --      2.6981                 0.8359                 0.2900

                     22                     23                     24
                      A                      A                      A
 Frequencies --    261.6461               272.8376               320.5540
 Red. masses --      1.6298                 2.8446                 3.0111
 Frc consts  --      0.0657                 0.1248                 0.1823
 IR Inten    --      1.2287                 1.3717                 0.0967

                     25                     26                     27
                      A                      A                      A
 Frequencies --    336.9109               349.1432               369.8656
 Red. masses --      2.4104                 1.3392                 2.3516
 Frc consts  --      0.1612                 0.0962                 0.1895
 IR Inten    --      1.3569                63.5105                29.6842

                     28                     29                     30
                      A                      A                      A
 Frequencies --    394.4075               423.5766               452.4952
 Red. masses --      2.4860                 3.2425                 3.3310
 Frc consts  --      0.2278                 0.3428                 0.4018
 IR Inten    --     29.2443                12.0184                29.8664

                     31                     32                     33
                      A                      A                      A
 Frequencies --    453.3182               480.2188               504.0881
 Red. masses --      2.7545                 2.8639                 2.7784
 Frc consts  --      0.3335                 0.3891                 0.4160
 IR Inten    --      5.0201                 1.7741                 3.2912

                     34                     35                     36
                      A                      A                      A
 Frequencies --    525.7504               572.9177               630.0794
 Red. masses --      2.9663                 2.6597                 4.4211
 Frc consts  --      0.4831                 0.5144                 1.0341
 IR Inten    --     10.5901                 6.9775                14.8882

                     37                     38                     39
                      A                      A                      A
 Frequencies --    737.7243               752.7427               769.2508
 Red. masses --      1.0756                 3.7554                 1.1561
 Frc consts  --      0.3449                 1.2537                 0.4031
 IR Inten    --      2.6906                 1.3729                 0.1369

                     40                     41                     42
                      A                      A                      A
 Frequencies --    779.5433               839.3191               890.1976
 Red. masses --      1.0845                 1.3542                 3.0575
 Frc consts  --      0.3883                 0.5621                 1.4276
 IR Inten    --      0.1701                 3.2199                19.9751

                     43                     44                     45
                      A                      A                      A
 Frequencies --    890.7418               906.9179               915.9511
 Red. masses --      1.1717                 1.6676                 1.9994
 Frc consts  --      0.5477                 0.8081                 0.9883
 IR Inten    --      0.3175                 0.0199                26.9330

                     46                     47                     48
                      A                      A                      A
 Frequencies --    919.8346               954.3024               971.7187
 Red. masses --      1.6326                 1.2024                 3.7391
 Frc consts  --      0.8138                 0.6452                 2.0802
 IR Inten    --      0.1774                 0.0145                 6.2745

                     49                     50                     51
                      A                      A                      A
 Frequencies --    987.1119               995.6276              1032.5404
 Red. masses --      1.6631                 4.1165                 2.9739
 Frc consts  --      0.9548                 2.4042                 1.8680
 IR Inten    --     18.1351                24.6848                10.1848

                     52                     53                     54
                      A                      A                      A
 Frequencies --   1036.4717              1039.9883              1044.6383
 Red. masses --      1.4257                 2.5572                 1.9452
 Frc consts  --      0.9024                 1.6295                 1.2507
 IR Inten    --      2.3389                45.2682                 3.2203

                     55                     56                     57
                      A                      A                      A
 Frequencies --   1061.7344              1070.0605              1089.4031
 Red. masses --      2.5043                 2.1979                 3.0454
 Frc consts  --      1.6633                 1.4828                 2.1295
 IR Inten    --      9.3768                 8.6465               105.1133

                     58                     59                     60
                      A                      A                      A
 Frequencies --   1094.1429              1110.0678              1120.8744
 Red. masses --      2.9550                 2.1752                 3.5697
 Frc consts  --      2.0842                 1.5792                 2.6424
 IR Inten    --     96.5401                94.0479               160.1349

                     61                     62                     63
                      A                      A                      A
 Frequencies --   1130.5774              1155.1973              1166.9655
 Red. masses --      4.1009                 3.4790                 5.7237
 Frc consts  --      3.0884                 2.7354                 4.5924
 IR Inten    --    109.4829               180.7364               102.6905

                     64                     65                     66
                      A                      A                      A
 Frequencies --   1176.9826              1179.4842              1210.1086
 Red. masses --      1.2776                 1.6771                 1.5598
 Frc consts  --      1.0428                 1.3746                 1.3458
 IR Inten    --      1.1544                 6.2435                11.6719

                     67                     68                     69
                      A                      A                      A
 Frequencies --   1219.5550              1226.3503              1232.6075
 Red. masses --      1.4789                 2.4575                 1.2212
 Frc consts  --      1.2960                 2.1776                 1.0932
 IR Inten    --     22.4105               123.6018                 0.1037

                     70                     71                     72
                      A                      A                      A
 Frequencies --   1250.1676              1250.9592              1255.9609
 Red. masses --      1.4316                 2.6441                 1.3586
 Frc consts  --      1.3183                 2.4378                 1.2627
 IR Inten    --      5.4173                19.5772                 7.8072

                     73                     74                     75
                      A                      A                      A
 Frequencies --   1271.5059              1293.0124              1298.0792
 Red. masses --      2.3793                 1.4652                 1.2441
 Frc consts  --      2.2664                 1.4433                 1.2352
 IR Inten    --     21.5313                 3.1936                 4.0715

                     76                     77                     78
                      A                      A                      A
 Frequencies --   1299.5944              1307.3543              1307.8983
 Red. masses --      1.0956                 1.2722                 1.1447
 Frc consts  --      1.0902                 1.2811                 1.1537
 IR Inten    --      0.9283                 0.0639                 0.4664

                     79                     80                     81
                      A                      A                      A
 Frequencies --   1316.9772              1329.1849              1343.4527
 Red. masses --      1.1284                 1.0967                 1.2754
 Frc consts  --      1.1531                 1.1416                 1.3562
 IR Inten    --      1.6565                 2.5661                 2.0700

                     82                     83                     84
                      A                      A                      A
 Frequencies --   1360.4244              1388.9184              1392.5114
 Red. masses --      1.3122                 1.4260                 1.2622
 Frc consts  --      1.4309                 1.6208                 1.4421
 IR Inten    --     26.4219                23.5260                12.7134

                     85                     86                     87
                      A                      A                      A
 Frequencies --   1393.3272              1403.7316              1420.4316
 Red. masses --      1.2998                 1.6485                 1.2632
 Frc consts  --      1.4868                 1.9138                 1.5016
 IR Inten    --     12.6824                 4.8034                 2.0974

                     88                     89                     90
                      A                      A                      A
 Frequencies --   1428.4520              1430.3767              1433.8972
 Red. masses --      1.4058                 1.3651                 1.2817
 Frc consts  --      1.6901                 1.6456                 1.5526
 IR Inten    --     31.3215                32.2236                43.5154

                     91                     92                     93
                      A                      A                      A
 Frequencies --   1444.9611              1471.0039              1481.7681
 Red. masses --      1.4594                 1.0489                 1.1675
 Frc consts  --      1.7953                 1.3372                 1.5104
 IR Inten    --      4.5118                 0.2751                 0.5138

                     94                     95                     96
                      A                      A                      A
 Frequencies --   1481.9380              1483.6582              1485.1412
 Red. masses --      1.0848                 1.0479                 1.0469
 Frc consts  --      1.4036                 1.3590                 1.3605
 IR Inten    --      2.7106                 0.8427                 4.6922

                     97                     98                     99
                      A                      A                      A
 Frequencies --   1486.1324              1486.8195              1495.5493
 Red. masses --      1.0483                 1.0771                 1.0897
 Frc consts  --      1.3641                 1.4029                 1.4359
 IR Inten    --      0.2536                 0.2090                 1.7314

                    100                    101                    102
                      A                      A                      A
 Frequencies --   1498.1913              1499.4323              1500.7733
 Red. masses --      1.0781                 1.0594                 1.0670
 Frc consts  --      1.4257                 1.4033                 1.4160
 IR Inten    --      0.3446                 0.5414                 5.2433

                    103                    104                    105
                      A                      A                      A
 Frequencies --   1504.8999              1513.1153              1516.5834
 Red. masses --      1.0695                 1.0936                 1.0621
 Frc consts  --      1.4270                 1.4753                 1.4394
 IR Inten    --      6.8851                 3.2814                 2.2197

                    106                    107                    108
                      A                      A                      A
 Frequencies --   1525.7498              1533.0090              1536.1465
 Red. masses --      1.0820                 1.0958                 1.0882
 Frc consts  --      1.4841                 1.5173                 1.5129
 IR Inten    --      8.1774                 1.0957                 1.4058

                    109                    110                    111
                      A                      A                      A
 Frequencies --   2936.0257              2960.8515              2961.1453
 Red. masses --      1.0526                 1.1044                 1.0647
 Frc consts  --      5.3459                 5.7046                 5.5005
 IR Inten    --     35.0030                54.0589                22.1773

                    112                    113                    114
                      A                      A                      A
 Frequencies --   2964.7618              2971.7713              2985.1881
 Red. masses --      1.0385                 1.0558                 1.0827
 Frc consts  --      5.3783                 5.4938                 5.6844
 IR Inten    --     77.3779                44.4058                38.8446

                    115                    116                    117
                      A                      A                      A
 Frequencies --   2998.1437              3002.4979              3004.7224
 Red. masses --      1.1034                 1.0584                 1.1028
 Frc consts  --      5.8438                 5.6215                 5.8664
 IR Inten    --     33.2852                11.5506                61.5592

                    118                    119                    120
                      A                      A                      A
 Frequencies --   3010.8278              3021.0091              3028.3672
 Red. masses --      1.0661                 1.0670                 1.0919
 Frc consts  --      5.6941                 5.7377                 5.8999
 IR Inten    --      1.7612                41.8466                24.4833

                    121                    122                    123
                      A                      A                      A
 Frequencies --   3030.0687              3032.5608              3036.2564
 Red. masses --      1.0822                 1.0709                 1.0354
 Frc consts  --      5.8541                 5.8028                 5.6239
 IR Inten    --     11.7742                54.4872                25.8071

                    124                    125                    126
                      A                      A                      A
 Frequencies --   3038.0292              3045.2896              3050.1000
 Red. masses --      1.0344                 1.0355                 1.0586
 Frc consts  --      5.6252                 5.6577                 5.8022
 IR Inten    --     19.8256                 7.0145                22.3802

                    127                    128                    129
                      A                      A                      A
 Frequencies --   3057.2517              3072.9782              3082.2632
 Red. masses --      1.0954                 1.1031                 1.1019
 Frc consts  --      6.0321                 6.1373                 6.1679
 IR Inten    --      0.6151                 5.3680                96.2332

                    130                    131                    132
                      A                      A                      A
 Frequencies --   3096.5313              3105.0077              3109.5199
 Red. masses --      1.1053                 1.1010                 1.1010
 Frc consts  --      6.2441                 6.2540                 6.2723
 IR Inten    --     35.6924                 0.6434                34.4683

                    133                    134                    135
                      A                      A                      A
 Frequencies --   3109.7822              3111.8185              3113.5678
 Red. masses --      1.0953                 1.1029                 1.1016
 Frc consts  --      6.2408                 6.2925                 6.2919
 IR Inten    --     32.2499                 3.5191                33.1950

                    136                    137                    138
                      A                      A                      A
 Frequencies --   3119.2900              3121.0420              3780.1385
 Red. masses --      1.1018                 1.1016                 1.0651
 Frc consts  --      6.3165                 6.3222                 8.9676
 IR Inten    --     31.7799                55.6131                14.7501

 - Thermochemistry -
 -------------------
 Temperature   298.150 Kelvin.  Pressure   1.00000 Atm.
 Atom     1 has atomic number  6 and mass  12.00000

 Molecular mass:   262.21441 amu.
 Principal axes and moments of inertia in atomic units:
                           1         2         3
     Eigenvalues --   954.73082********************
           X            0.99999  -0.00302  -0.00183
           Y            0.00304   0.99992   0.01199
           Z            0.00180  -0.01200   0.99993
 This molecule is an asymmetric top.
 Rotational symmetry number  1.
 Warning -- assumption of classical behavior for rotation
           may cause significant error
 Rotational temperatures (Kelvin)      0.09072     0.00315     0.00311
 Rotational constants (GHZ):           1.89031     0.06561     0.06479
 Zero-point vibrational energy    1134442.4 (Joules/Mol)
                                  271.13823 (Kcal/Mol)
 Warning -- explicit consideration of  35 degrees of freedom as
           vibrations may cause significant error
 Vibrational temperatures:     16.26    23.09    33.90    47.84    68.31
          (Kelvin)             86.78    91.98    98.56   130.98   155.45
                              177.69   192.34   196.52   207.79   222.95
                              247.04   280.44   291.10   340.52   353.73
                              376.12   376.45   392.55   461.21   484.74
                              502.34   532.15   567.46   609.43   651.04
                              652.22   690.93   725.27   756.44   824.30
                              906.54  1061.42  1083.03  1106.78  1121.59
                             1207.59  1280.80  1281.58  1304.85  1317.85
                             1323.44  1373.03  1398.09  1420.23  1432.49
                             1485.60  1491.25  1496.31  1503.00  1527.60
                             1539.58  1567.41  1574.23  1597.14  1612.69
                             1626.65  1662.07  1679.00  1693.42  1697.01
                             1741.08  1754.67  1764.44  1773.45  1798.71
                             1799.85  1807.05  1829.41  1860.36  1867.65
                             1869.83  1880.99  1881.77  1894.84  1912.40
                             1932.93  1957.35  1998.34  2003.51  2004.69
                             2019.66  2043.68  2055.22  2057.99  2063.06
                             2078.98  2116.45  2131.93  2132.18  2134.65
                             2136.79  2138.21  2139.20  2151.76  2155.56
                             2157.35  2159.28  2165.22  2177.04  2182.03
                             2195.21  2205.66  2210.17  4224.29  4260.00
                             4260.43  4265.63  4275.72  4295.02  4313.66
                             4319.92  4323.13  4331.91  4346.56  4357.14
                             4359.59  4363.18  4368.50  4371.05  4381.49
                             4388.41  4398.70  4421.33  4434.69  4455.22
                             4467.41  4473.91  4474.28  4477.21  4479.73
                             4487.96  4490.48  5438.78

 Zero-point correction=                           0.432086 (Hartree/Particle)
 Thermal correction to Energy=                    0.455857
 Thermal correction to Enthalpy=                  0.456801
 Thermal correction to Gibbs Free Energy=         0.374314
 Sum of electronic and zero-point Energies=           -852.071874
 Sum of electronic and thermal Energies=              -852.048104
 Sum of electronic and thermal Enthalpies=            -852.047159
 Sum of electronic and thermal Free Energies=         -852.129646

                     E (Thermal)             CV                S
                      KCal/Mol        Cal/Mol-Kelvin    Cal/Mol-Kelvin
 Total                  286.054             84.010            173.608
 Electronic               0.000              0.000              0.000
 Translational            0.889              2.981             42.591
 Rotational               0.889              2.981             34.947
 Vibrational            284.277             78.049             96.070
 Vibration     1          0.593              1.987              7.768
 Vibration     2          0.593              1.986              7.072
 Vibration     3          0.593              1.985              6.309
 Vibration     4          0.594              1.983              5.625
 Vibration     5          0.595              1.979              4.920
 Vibration     6          0.597              1.973              4.447
 Vibration     7          0.597              1.972              4.332
 Vibration     8          0.598              1.969              4.196
 Vibration     9          0.602              1.956              3.638
 Vibration    10          0.606              1.943              3.304
 Vibration    11          0.610              1.929              3.045
 Vibration    12          0.613              1.920              2.892
 Vibration    13          0.614              1.917              2.851
 Vibration    14          0.616              1.909              2.744
 Vibration    15          0.620              1.897              2.610
 Vibration    16          0.626              1.877              2.417
 Vibration    17          0.636              1.847              2.181
 Vibration    18          0.639              1.837              2.112
 Vibration    19          0.656              1.785              1.828
 Vibration    20          0.660              1.770              1.760
 Vibration    21          0.669              1.743              1.652
 Vibration    22          0.669              1.743              1.651
 Vibration    23          0.676              1.723              1.578
 Vibration    24          0.706              1.634              1.307
 Vibration    25          0.718              1.602              1.227
 Vibration    26          0.726              1.577              1.170
 Vibration    27          0.742              1.534              1.080
 Vibration    28          0.761              1.482              0.983
 Vibration    29          0.786              1.419              0.880
 Vibration    30          0.811              1.355              0.788
 Vibration    31          0.812              1.354              0.786
 Vibration    32          0.837              1.294              0.709
 Vibration    33          0.859              1.241              0.648
 Vibration    34          0.881              1.193              0.597
 Vibration    35          0.929              1.090              0.499

 Optimization completed.
    -- Stationary point found.
 Normal termination of Gaussian 16 at Mon May 22 13:37:06 2023.
