 Gaussian 16, Revision A.03,
 Gaussian 16:  ES64L-G16RevA.03 25-Dec-2016

 -----------------------------
 # opt freq b3lyp/6-31g(2df,p)
 -----------------------------

 -------------------
 Title Card Required
 -------------------
 Symbolic Z-matrix:
 Charge =  0 Multiplicity = 1

 SCF Done:  E(RB3LYP) =  -999.321329979     A.U. after   13 cycles
 SCF Done:  E(RB3LYP) =  -999.347786337     A.U. after   13 cycles
 SCF Done:  E(RB3LYP) =  -999.379158867     A.U. after   11 cycles
 SCF Done:  E(RB3LYP) =  -999.397237521     A.U. after   12 cycles
 SCF Done:  E(RB3LYP) =  -999.402917689     A.U. after   12 cycles
 SCF Done:  E(RB3LYP) =  -999.406064897     A.U. after   11 cycles
 SCF Done:  E(RB3LYP) =  -999.407089874     A.U. after   11 cycles
 SCF Done:  E(RB3LYP) =  -999.407859213     A.U. after   11 cycles
 SCF Done:  E(RB3LYP) =  -999.408403958     A.U. after   11 cycles
 SCF Done:  E(RB3LYP) =  -999.409932021     A.U. after   12 cycles
 SCF Done:  E(RB3LYP) =  -999.417713355     A.U. after   10 cycles
 SCF Done:  E(RB3LYP) =  -999.417759731     A.U. after   10 cycles
 SCF Done:  E(RB3LYP) =  -999.417784668     A.U. after   10 cycles
 SCF Done:  E(RB3LYP) =  -999.417790940     A.U. after    9 cycles
 SCF Done:  E(RB3LYP) =  -999.417794041     A.U. after    8 cycles
 SCF Done:  E(RB3LYP) =  -999.417796263     A.U. after    8 cycles
 SCF Done:  E(RB3LYP) =  -999.417797146     A.U. after    7 cycles
 SCF Done:  E(RB3LYP) =  -999.417797612     A.U. after    7 cycles
 SCF Done:  E(RB3LYP) =  -999.417797669     A.U. after    6 cycles
 Optimization completed.
    -- Stationary point found.
 Normal termination of Gaussian 16 at Wed May 24 14:25:34 2023.

 ----------------------------------------------------------------------
 #N Geom=AllCheck Guess=TCheck SCRF=Check GenChk RB3LYP/6-31G(2df,p) Fr
 eq
 ----------------------------------------------------------------------

 Structure from the checkpoint file:  "COCCOCCCCCqCCqCOrOOrOCO.chk"
 -------------------
 Title Card Required
 -------------------
 Charge =  0 Multiplicity = 1

                         Standard orientation:
 ---------------------------------------------------------------------
 Center     Atomic      Atomic             Coordinates (Angstroms)
 Number     Number       Type             X           Y           Z
 ---------------------------------------------------------------------
      1          6           0        8.712580    0.101285   -0.234844
      2          8           0        7.460853    0.621681    0.141690
      3          6           0        6.386826   -0.208160   -0.233908
      4          6           0        5.102475    0.461741    0.229764
      5          8           0        4.026549   -0.365551   -0.149261
      6          6           0        2.766788    0.144743    0.227526
      7          6           0        1.690552   -0.830117   -0.231123
      8          6           0        0.274724   -0.363839    0.126288
      9          6           0       -0.805761   -1.352158   -0.326869
     10          6           0       -2.238059   -0.939322    0.031881
     11          6           0       -2.753280    0.240464   -0.831802
     12          6           0       -3.677245    1.228589   -0.104729
     13          6           0       -2.929744    2.381151    0.581468
     14          8           0       -2.067636    1.935843    1.617854
     15          8           0       -4.543735    1.730175   -1.125553
     16          8           0       -5.617866    2.453668   -0.472079
     17          8           0       -3.027845   -2.109828   -0.151386
     18          6           0       -4.313328   -2.095043    0.430527
     19          8           0       -4.815507   -3.390488    0.448169
     20          1           0        9.475470    0.809673    0.097130
     21          1           0        8.792381   -0.021945   -1.326674
     22          1           0        8.906650   -0.876442    0.234159
     23          1           0        6.472316   -1.205832    0.226974
     24          1           0        6.356388   -0.352653   -1.326331
     25          1           0        5.019240    1.460234   -0.229146
     26          1           0        5.131810    0.603159    1.322196
     27          1           0        2.605188    1.138659   -0.226388
     28          1           0        2.720575    0.282460    1.322118
     29          1           0        1.887189   -1.808694    0.222159
     30          1           0        1.778366   -0.964051   -1.315810
     31          1           0        0.104925    0.622490   -0.330260
     32          1           0        0.204111   -0.225280    1.214988
     33          1           0       -0.624963   -2.325929    0.140027
     34          1           0       -0.740450   -1.508865   -1.411298
     35          1           0       -2.271050   -0.652580    1.094994
     36          1           0       -3.300227   -0.189358   -1.677202
     37          1           0       -1.910262    0.793175   -1.262456
     38          1           0       -4.284831    0.707930    0.645942
     39          1           0       -3.659567    3.045623    1.050491
     40          1           0       -2.388628    2.958268   -0.184145
     41          1           0       -1.255425    1.609453    1.219622
     42          1           0       -5.490612    3.335622   -0.848304
     43          1           0       -4.977389   -1.410741   -0.126370
     44          1           0       -4.258808   -1.764960    1.479017
     45          1           0       -4.910063   -3.679408   -0.465987
 ---------------------------------------------------------------------

 SCF Done:  E(RB3LYP) =  -999.417797669     A.U. after    1 cycles

 The electronic state is 1-A.
 Alpha  occ. eigenvalues --  -19.19750 -19.19452 -19.14661 -19.14269 -19.14194
 Alpha  occ. eigenvalues --  -19.14180 -19.13880 -10.27190 -10.24021 -10.23765
 Alpha  occ. eigenvalues --  -10.23179 -10.23146 -10.22729 -10.22663 -10.22544
 Alpha  occ. eigenvalues --  -10.19765 -10.19069 -10.18740 -10.18621  -1.11752
 Alpha  occ. eigenvalues --   -1.06129  -1.04133  -1.03192  -1.02622  -1.00157
 Alpha  occ. eigenvalues --   -0.91843  -0.81799  -0.78477  -0.76100  -0.73654
 Alpha  occ. eigenvalues --   -0.70251  -0.68290  -0.66332  -0.63382  -0.60569
 Alpha  occ. eigenvalues --   -0.59956  -0.59202  -0.58605  -0.54172  -0.52168
 Alpha  occ. eigenvalues --   -0.51780  -0.50779  -0.50299  -0.50127  -0.48479
 Alpha  occ. eigenvalues --   -0.47677  -0.47156  -0.46652  -0.45723  -0.45600
 Alpha  occ. eigenvalues --   -0.44930  -0.44703  -0.42627  -0.42480  -0.40738
 Alpha  occ. eigenvalues --   -0.40004  -0.39368  -0.38384  -0.38131  -0.36938
 Alpha  occ. eigenvalues --   -0.36308  -0.35689  -0.35172  -0.34620  -0.33801
 Alpha  occ. eigenvalues --   -0.33680  -0.33469  -0.32330  -0.31667  -0.31588
 Alpha  occ. eigenvalues --   -0.30902  -0.29160  -0.28743  -0.26125  -0.25632
 Alpha  occ. eigenvalues --   -0.25436  -0.25084
 Alpha virt. eigenvalues --    0.02448   0.05094   0.07595   0.08094   0.08490
 Alpha virt. eigenvalues --    0.08702   0.09445   0.09761   0.10152   0.11295
 Alpha virt. eigenvalues --    0.12117   0.12688   0.13158   0.13471   0.14296

 Mulliken charges:
               1
     1  C   -0.225000
     2  O   -0.232678
     3  C   -0.068349
     4  C   -0.069941
     5  O   -0.249899
     6  C   -0.052121
     7  C   -0.202074
     8  C   -0.214686
     9  C   -0.208706
    10  C    0.101434
    11  C   -0.269154
    12  C    0.154994
    13  C   -0.102766
    14  O   -0.413038
    15  O   -0.207375
    16  O   -0.327815
    17  O   -0.259751
    18  C    0.020759
    19  O   -0.396024
    20  H    0.127037
    21  H    0.104530
    22  H    0.104942
    23  H    0.094896
    24  H    0.094219
    25  H    0.095026
    26  H    0.096245
    27  H    0.082418
    28  H    0.086466
    29  H    0.112673
    30  H    0.109649
    31  H    0.090579
    32  H    0.107163
    33  H    0.113787
    34  H    0.103754
    35  H    0.083843
    36  H    0.128228
    37  H    0.099533
    38  H    0.094863
    39  H    0.116460
    40  H    0.090190
    41  H    0.291399
    42  H    0.312962
    43  H    0.090458
    44  H    0.102230
    45  H    0.288641
 Sum of Mulliken charges =  -0.00000

 Dipole moment (field-independent basis, Debye):
    X=              1.7364    Y=              1.6551    Z=             -1.8803  Tot=              3.0479
 Quadrupole moment (field-independent basis, Debye-Ang):
   XX=           -117.3207   YY=           -114.9443   ZZ=           -118.9820
   XY=            -10.8050   XZ=              4.6867   YZ=             -0.1388

  Exact polarizability: 210.870  -2.825 158.265  -0.172   1.457 132.198
 Approx polarizability: 231.884  -5.561 223.036  -3.125   2.806 212.447

                      1                      2                      3
                      A                      A                      A
 Frequencies --     15.5020                23.9593                27.6457
 Red. masses --      4.9583                 4.8619                 5.8959
 Frc consts  --      0.0007                 0.0016                 0.0027
 IR Inten    --      0.3273                 0.1501                 0.3393

                      4                      5                      6
                      A                      A                      A
 Frequencies --     32.1399                44.3712                49.2713
 Red. masses --      2.1099                 3.9451                 5.0712
 Frc consts  --      0.0013                 0.0046                 0.0073
 IR Inten    --      0.6261                 0.4380                 0.1995

                      7                      8                      9
                      A                      A                      A
 Frequencies --     78.1875                81.6122                86.8249
 Red. masses --      3.8166                 4.3667                 1.9045
 Frc consts  --      0.0137                 0.0171                 0.0085
 IR Inten    --      2.2943                 1.1833                 2.3346

                     10                     11                     12
                      A                      A                      A
 Frequencies --    102.8038               107.6245               113.4554
 Red. masses --      3.0124                 2.7281                 2.5834
 Frc consts  --      0.0188                 0.0186                 0.0196
 IR Inten    --      1.0229                 3.1137                 3.0223

                     13                     14                     15
                      A                      A                      A
 Frequencies --    116.9995               128.0103               146.5187
 Red. masses --      4.5939                 2.6205                 3.0097
 Frc consts  --      0.0371                 0.0253                 0.0381
 IR Inten    --      8.1172                 1.3661                 1.7960

                     16                     17                     18
                      A                      A                      A
 Frequencies --    158.8248               167.8863               174.3742
 Red. masses --      2.4144                 3.4231                 3.5455
 Frc consts  --      0.0359                 0.0568                 0.0635
 IR Inten    --      1.0469                 0.6324                 1.6727

                     19                     20                     21
                      A                      A                      A
 Frequencies --    187.7549               223.4500               233.9351
 Red. masses --      4.2967                 1.8201                 1.2436
 Frc consts  --      0.0892                 0.0535                 0.0401
 IR Inten    --      3.8184                23.5894                 3.5856

                     22                     23                     24
                      A                      A                      A
 Frequencies --    239.3652               248.8529               283.8267
 Red. masses --      1.8522                 2.3082                 3.9054
 Frc consts  --      0.0625                 0.0842                 0.1854
 IR Inten    --     46.8996                60.6487                 0.7816

                     25                     26                     27
                      A                      A                      A
 Frequencies --    305.7417               332.0869               335.7858
 Red. masses --      2.5112                 1.1934                 1.5122
 Frc consts  --      0.1383                 0.0775                 0.1005
 IR Inten    --     14.3611               154.1242                59.0095

                     28                     29                     30
                      A                      A                      A
 Frequencies --    361.0744               374.5628               388.2571
 Red. masses --      4.5419                 3.7012                 3.2489
 Frc consts  --      0.3489                 0.3059                 0.2886
 IR Inten    --      5.8432                 1.9120                12.1619

                     31                     32                     33
                      A                      A                      A
 Frequencies --    410.8869               487.7868               507.5978
 Red. masses --      2.3776                 3.2023                 4.5920
 Frc consts  --      0.2365                 0.4489                 0.6971
 IR Inten    --      5.2127                 2.2019                 1.5589

                     34                     35                     36
                      A                      A                      A
 Frequencies --    509.4610               535.3945               582.9611
 Red. masses --      3.6371                 3.4918                 3.2523
 Frc consts  --      0.5562                 0.5897                 0.6512
 IR Inten    --     10.9803                 3.3982                 3.3112

                     37                     38                     39
                      A                      A                      A
 Frequencies --    592.6746               751.3464               795.6882
 Red. masses --      3.8156                 1.0901                 1.2271
 Frc consts  --      0.7897                 0.3626                 0.4577
 IR Inten    --      6.1647                 3.9378                 1.3608

                     40                     41                     42
                      A                      A                      A
 Frequencies --    834.8895               854.9680               878.6598
 Red. masses --      1.0973                 1.9372                 2.0042
 Frc consts  --      0.4507                 0.8343                 0.9117
 IR Inten    --      0.2919                 1.1804                 1.3024

                     43                     44                     45
                      A                      A                      A
 Frequencies --    904.3568               942.3872               972.4096
 Red. masses --      2.1374                 3.0759                 3.8460
 Frc consts  --      1.0300                 1.6095                 2.1427
 IR Inten    --      1.3219                12.7546                50.2652

                     46                     47                     48
                      A                      A                      A
 Frequencies --    981.1332               986.0506              1023.1063
 Red. masses --      2.3084                 3.9728                 3.3778
 Frc consts  --      1.3093                 2.2759                 2.0832
 IR Inten    --      9.7044                13.3468                 5.7982

                     49                     50                     51
                      A                      A                      A
 Frequencies --   1034.6897              1049.0698              1053.9116
 Red. masses --      3.2991                 3.1803                 2.8218
 Frc consts  --      2.0810                 2.0622                 1.8466
 IR Inten    --      5.8815                14.6143                30.3568

                     52                     53                     54
                      A                      A                      A
 Frequencies --   1063.8405              1069.9857              1074.5084
 Red. masses --      2.0713                 1.6244                 4.6991
 Frc consts  --      1.3812                 1.0957                 3.1966
 IR Inten    --     19.4699                65.7038                57.0313

                     55                     56                     57
                      A                      A                      A
 Frequencies --   1084.1938              1102.0400              1109.4251
 Red. masses --      3.0614                 2.8629                 2.5978
 Frc consts  --      2.1203                 2.0486                 1.8839
 IR Inten    --     45.6361                37.8237               154.0194

                     58                     59                     60
                      A                      A                      A
 Frequencies --   1118.8805              1136.8337              1152.0865
 Red. masses --      3.1183                 3.5102                 2.9871
 Frc consts  --      2.3000                 2.6729                 2.3360
 IR Inten    --    182.0045                15.9791                36.3513

                     61                     62                     63
                      A                      A                      A
 Frequencies --   1160.0024              1168.0995              1168.9824
 Red. masses --      1.4729                 2.0977                 2.9257
 Frc consts  --      1.1677                 1.6864                 2.3556
 IR Inten    --      1.4088                33.3872                13.9205

                     64                     65                     66
                      A                      A                      A
 Frequencies --   1177.2697              1183.0184              1190.5189
 Red. masses --      5.8610                 1.6197                 1.3835
 Frc consts  --      4.7860                 1.3356                 1.1553
 IR Inten    --    439.1246                 2.5152                 2.1694

                     67                     68                     69
                      A                      A                      A
 Frequencies --   1214.0435              1233.2283              1236.0471
 Red. masses --      1.3971                 1.7363                 1.2236
 Frc consts  --      1.2132                 1.5558                 1.1015
 IR Inten    --      2.0901                52.4672                 9.6758

                     70                     71                     72
                      A                      A                      A
 Frequencies --   1252.7068              1256.6589              1267.6915
 Red. masses --      1.3028                 1.1755                 1.2377
 Frc consts  --      1.2046                 1.0937                 1.1719
 IR Inten    --      2.7173                12.6832                 1.1210

                     73                     74                     75
                      A                      A                      A
 Frequencies --   1281.9961              1291.1451              1300.6542
 Red. masses --      1.2582                 1.0952                 1.2527
 Frc consts  --      1.2184                 1.0757                 1.2486
 IR Inten    --      2.4686                 0.0356                 4.9136

                     76                     77                     78
                      A                      A                      A
 Frequencies --   1315.1857              1323.1503              1327.6256
 Red. masses --      1.1037                 1.1299                 1.2078
 Frc consts  --      1.1248                 1.1655                 1.2543
 IR Inten    --      0.4967                10.2822                12.0392

                     79                     80                     81
                      A                      A                      A
 Frequencies --   1335.2812              1358.1717              1370.4066
 Red. masses --      1.2451                 1.2800                 1.2259
 Frc consts  --      1.3080                 1.3911                 1.3564
 IR Inten    --      0.1177                58.3441                25.1651

                     82                     83                     84
                      A                      A                      A
 Frequencies --   1383.2760              1386.9963              1391.1107
 Red. masses --      1.3359                 1.2778                 1.2486
 Frc consts  --      1.5060                 1.4483                 1.4237
 IR Inten    --     12.7200                27.4858                18.2118

                     85                     86                     87
                      A                      A                      A
 Frequencies --   1396.9347              1404.4906              1408.5675
 Red. masses --      1.4552                 1.2976                 1.3967
 Frc consts  --      1.6731                 1.5080                 1.6327
 IR Inten    --     12.2697                 7.4959                35.1423

                     88                     89                     90
                      A                      A                      A
 Frequencies --   1414.1083              1421.7543              1460.0759
 Red. masses --      1.3029                 1.4252                 1.4841
 Frc consts  --      1.5351                 1.6974                 1.8641
 IR Inten    --      3.8306                 3.4123                 8.1132

                     91                     92                     93
                      A                      A                      A
 Frequencies --   1467.8566              1481.2440              1483.8364
 Red. masses --      1.2469                 1.0812                 1.1964
 Frc consts  --      1.5828                 1.3977                 1.5521
 IR Inten    --     37.7097                 6.4390                 0.5762

                     94                     95                     96
                      A                      A                      A
 Frequencies --   1485.5357              1488.9817              1492.8123
 Red. masses --      1.0467                 1.0854                 1.0783
 Frc consts  --      1.3610                 1.4178                 1.4159
 IR Inten    --      4.9346                 1.0051                 0.4452

                     97                     98                     99
                      A                      A                      A
 Frequencies --   1504.8395              1507.7096              1510.8868
 Red. masses --      1.0657                 1.0812                 1.0880
 Frc consts  --      1.4219                 1.4481                 1.4633
 IR Inten    --      6.5894                 4.4243                 4.7541

                    100                    101                    102
                      A                      A                      A
 Frequencies --   1519.6324              1533.1526              1539.5545
 Red. masses --      1.0896                 1.0955                 1.0899
 Frc consts  --      1.4825                 1.5172                 1.5221
 IR Inten    --      6.5056                 1.0552                 1.1492

                    103                    104                    105
                      A                      A                      A
 Frequencies --   1541.1073              2940.5540              2941.5221
 Red. masses --      1.1021                 1.0542                 1.0626
 Frc consts  --      1.5422                 5.3705                 5.4169
 IR Inten    --      2.1454                29.4106                77.3718

                    106                    107                    108
                      A                      A                      A
 Frequencies --   2960.6389              2966.5429              2970.1636
 Red. masses --      1.0477                 1.1035                 1.0521
 Frc consts  --      5.4110                 5.7218                 5.4685
 IR Inten    --     24.4834                45.7704                36.2719

                    109                    110                    111
                      A                      A                      A
 Frequencies --   2974.4883              2979.6167              2986.1540
 Red. masses --      1.0460                 1.0814                 1.1035
 Frc consts  --      5.4526                 5.6566                 5.7976
 IR Inten    --     98.2054                10.3172                 2.4943

                    112                    113                    114
                      A                      A                      A
 Frequencies --   2988.6665              2989.6808              3008.4873
 Red. masses --      1.0665                 1.0612                 1.0986
 Frc consts  --      5.6128                 5.5885                 5.8586
 IR Inten    --     50.8871                31.6555                43.8759

                    115                    116                    117
                      A                      A                      A
 Frequencies --   3012.4242              3014.4220              3019.5697
 Red. masses --      1.1041                 1.1083                 1.0971
 Frc consts  --      5.9032                 5.9338                 5.8939
 IR Inten    --    146.2437                12.9415                11.2861

                    118                    119                    120
                      A                      A                      A
 Frequencies --   3029.6638              3032.5551              3037.2681
 Red. masses --      1.0634                 1.0761                 1.0603
 Frc consts  --      5.7510                 5.8305                 5.7630
 IR Inten    --      7.2619                 5.4949                48.2533

                    121                    122                    123
                      A                      A                      A
 Frequencies --   3042.7727              3076.6805              3084.9194
 Red. masses --      1.0689                 1.1030                 1.1002
 Frc consts  --      5.8310                 6.1516                 6.1690
 IR Inten    --     47.6119                 3.4577                30.4484

                    124                    125                    126
                      A                      A                      A
 Frequencies --   3086.6407              3101.8656              3113.5250
 Red. masses --      1.1017                 1.0944                 1.0959
 Frc consts  --      6.1843                 6.2040                 6.2593
 IR Inten    --     48.8573                25.3258                31.6339

                    127                    128                    129
                      A                      A                      A
 Frequencies --   3765.5092              3811.9378              3832.6090
 Red. masses --      1.0686                 1.0656                 1.0664
 Frc consts  --      8.9269                 9.1225                 9.2288
 IR Inten    --     43.0694                30.9413                59.9672

 - Thermochemistry -
 -------------------
 Temperature   298.150 Kelvin.  Pressure   1.00000 Atm.
 Atom     1 has atomic number  6 and mass  12.00000

 Molecular mass:   282.16785 amu.
 Principal axes and moments of inertia in atomic units:
                           1         2         3
     Eigenvalues --  2994.44379********************
           X            1.00000  -0.00143  -0.00158
           Y            0.00144   0.99999   0.00488
           Z            0.00157  -0.00488   0.99999
 This molecule is an asymmetric top.
 Rotational symmetry number  1.
 Warning -- assumption of classical behavior for rotation
           may cause significant error
 Rotational temperatures (Kelvin)      0.02892     0.00423     0.00382
 Rotational constants (GHZ):           0.60270     0.08815     0.07967
 Zero-point vibrational energy    1023866.8 (Joules/Mol)
                                  244.71003 (Kcal/Mol)
 Warning -- explicit consideration of  37 degrees of freedom as
           vibrations may cause significant error
 Vibrational temperatures:     22.30    34.47    39.78    46.24    63.84
          (Kelvin)             70.89   112.49   117.42   124.92   147.91
                              154.85   163.24   168.34   184.18   210.81
                              228.51   241.55   250.89   270.14   321.49
                              336.58   344.39   358.04   408.36   439.89
                              477.80   483.12   519.51   538.91   558.62
                              591.17   701.82   730.32   733.00   770.31
                              838.75   852.73  1081.02  1144.82  1201.22
                             1230.11  1264.20  1301.17  1355.88  1399.08
                             1411.63  1418.71  1472.02  1488.69  1509.38
                             1516.34  1530.63  1539.47  1545.98  1559.91
                             1585.59  1596.22  1609.82  1635.65  1657.60
                             1668.98  1680.63  1681.91  1693.83  1702.10
                             1712.89  1746.74  1774.34  1778.40  1802.37
                             1808.05  1823.93  1844.51  1857.67  1871.35
                             1892.26  1903.72  1910.16  1921.17  1954.11
                             1971.71  1990.23  1995.58  2001.50  2009.88
                             2020.75  2026.61  2034.59  2045.59  2100.72
                             2111.92  2131.18  2134.91  2137.35  2142.31
                             2147.82  2165.13  2169.26  2173.83  2186.41
                             2205.86  2215.08  2217.31  4230.80  4232.19
                             4259.70  4268.19  4273.40  4279.63  4287.00
                             4296.41  4300.02  4301.48  4328.54  4334.21
                             4337.08  4344.49  4359.01  4363.17  4369.95
                             4377.87  4426.66  4438.51  4440.99  4462.89
                             4479.67  5417.73  5484.53  5514.27

 Zero-point correction=                           0.389970 (Hartree/Particle)
 Thermal correction to Energy=                    0.414459
 Thermal correction to Enthalpy=                  0.415403
 Thermal correction to Gibbs Free Energy=         0.331282
 Sum of electronic and zero-point Energies=           -999.027827
 Sum of electronic and thermal Energies=              -999.003339
 Sum of electronic and thermal Enthalpies=            -999.002395
 Sum of electronic and thermal Free Energies=         -999.086516

                     E (Thermal)             CV                S
                      KCal/Mol        Cal/Mol-Kelvin    Cal/Mol-Kelvin
 Total                  260.077             84.229            177.047
 Electronic               0.000              0.000              0.000
 Translational            0.889              2.981             42.810
 Rotational               0.889              2.981             35.583
 Vibrational            258.299             78.268             98.653
 Vibration     1          0.593              1.986              7.140
 Vibration     2          0.593              1.985              6.276
 Vibration     3          0.593              1.984              5.992
 Vibration     4          0.594              1.983              5.693
 Vibration     5          0.595              1.980              5.054
 Vibration     6          0.595              1.978              4.846
 Vibration     7          0.599              1.964              3.936
 Vibration     8          0.600              1.962              3.852
 Vibration     9          0.601              1.958              3.730
 Vibration    10          0.605              1.947              3.400
 Vibration    11          0.606              1.943              3.311
 Vibration    12          0.607              1.938              3.209
 Vibration    13          0.608              1.935              3.149
 Vibration    14          0.611              1.925              2.976
 Vibration    15          0.617              1.906              2.717
 Vibration    16          0.621              1.893              2.564
 Vibration    17          0.625              1.882              2.459
 Vibration    18          0.627              1.874              2.388
 Vibration    19          0.632              1.857              2.250
 Vibration    20          0.649              1.805              1.931
 Vibration    21          0.654              1.789              1.849
 Vibration    22          0.657              1.780              1.808
 Vibration    23          0.662              1.765              1.739
 Vibration    24          0.682              1.704              1.510
 Vibration    25          0.696              1.663              1.385
 Vibration    26          0.714              1.611              1.250
 Vibration    27          0.717              1.604              1.232
 Vibration    28          0.735              1.552              1.117
 Vibration    29          0.746              1.524              1.061
 Vibration    30          0.756              1.495              1.007
 Vibration    31          0.775              1.447              0.923
 Vibration    32          0.844              1.277              0.689
 Vibration    33          0.863              1.233              0.639
 Vibration    34          0.865              1.229              0.635
 Vibration    35          0.890              1.172              0.575
 Vibration    36          0.940              1.068              0.480
 Vibration    37          0.950              1.047              0.462

                           ! Non-Optimized Parameters !
 Normal termination of Gaussian 16 at Wed May 24 19:40:18 2023.
