 Gaussian 16, Revision A.03,
 Gaussian 16:  ES64L-G16RevA.03 25-Dec-2016

 -----------------------------
 # opt freq b3lyp/6-31g(2df,p)
 -----------------------------

 -------------------
 Title Card Required
 -------------------
 Symbolic Z-matrix:
 Charge =  0 Multiplicity = 1

 SCF Done:  E(RB3LYP) =  -719.015232600     A.U. after   13 cycles
 SCF Done:  E(RB3LYP) =  -719.034781077     A.U. after   11 cycles
 SCF Done:  E(RB3LYP) =  -719.042105059     A.U. after   10 cycles
 SCF Done:  E(RB3LYP) =  -719.045243615     A.U. after   11 cycles
 SCF Done:  E(RB3LYP) =  -719.047848000     A.U. after   11 cycles
 SCF Done:  E(RB3LYP) =  -719.048752875     A.U. after   11 cycles
 SCF Done:  E(RB3LYP) =  -719.048887752     A.U. after   10 cycles
 SCF Done:  E(RB3LYP) =  -719.048948582     A.U. after    9 cycles
 SCF Done:  E(RB3LYP) =  -719.048961330     A.U. after    9 cycles
 SCF Done:  E(RB3LYP) =  -719.048963690     A.U. after    8 cycles
 SCF Done:  E(RB3LYP) =  -719.048965129     A.U. after    9 cycles
 SCF Done:  E(RB3LYP) =  -719.048965876     A.U. after    7 cycles
 SCF Done:  E(RB3LYP) =  -719.048966015     A.U. after    7 cycles
 SCF Done:  E(RB3LYP) =  -719.048966085     A.U. after    6 cycles
 Optimization completed.
    -- Stationary point found.
 Normal termination of Gaussian 16 at Mon May 22 09:08:46 2023.

 ----------------------------------------------------------------------
 #N Geom=AllCheck Guess=TCheck SCRF=Check GenChk RB3LYP/6-31G(2df,p) Fr
 eq
 ----------------------------------------------------------------------

 Structure from the checkpoint file:  "COCCqCNrCC1CdCCCqCrCqCrCC1.chk"
 -------------------
 Title Card Required
 -------------------
 Charge =  0 Multiplicity = 1

                         Standard orientation:
 ---------------------------------------------------------------------
 Center     Atomic      Atomic             Coordinates (Angstroms)
 Number     Number       Type             X           Y           Z
 ---------------------------------------------------------------------
      1          6           0       -4.996521    1.909360   -0.529494
      2          8           0       -3.896326    1.298093    0.099206
      3          6           0       -3.144757    0.479366   -0.780989
      4          6           0       -2.116670   -0.308010    0.041740
      5          6           0       -2.719209   -1.590892    0.647715
      6          7           0       -4.096137   -1.396251    1.112666
      7          6           0       -0.871975   -0.611874   -0.815070
      8          6           0        0.289614   -1.360097   -0.110466
      9          6           0        1.303512   -1.787246   -1.152647
     10          6           0        2.636556   -1.710654   -1.191187
     11          6           0        3.590756   -1.133853   -0.173329
     12          6           0        3.692359    0.416755   -0.139789
     13          6           0        4.563700    0.834122    1.054718
     14          6           0        2.324652    1.141761   -0.211164
     15          6           0        2.508702    2.664296   -0.332736
     16          6           0        1.328348    0.839624    0.929058
     17          6           0        0.828353   -0.607334    1.126529
     18          1           0       -5.496320    2.533597    0.215822
     19          1           0       -5.712407    1.164410   -0.909329
     20          1           0       -4.683260    2.547893   -1.371268
     21          1           0       -2.637379    1.114237   -1.527258
     22          1           0       -3.811009   -0.207579   -1.325267
     23          1           0       -1.831623    0.362908    0.862770
     24          1           0       -2.040551   -1.953611    1.437220
     25          1           0       -2.734426   -2.372966   -0.126202
     26          1           0       -4.167903   -0.529372    1.634862
     27          1           0       -4.364660   -2.152812    1.732996
     28          1           0       -0.490802    0.330550   -1.225883
     29          1           0       -1.187085   -1.209007   -1.682095
     30          1           0       -0.134940   -2.300689    0.274257
     31          1           0        0.828757   -2.256263   -2.015770
     32          1           0        3.110350   -2.108018   -2.087499
     33          1           0        4.594659   -1.520857   -0.382830
     34          1           0        3.350114   -1.493860    0.830404
     35          1           0        4.225985    0.717506   -1.053184
     36          1           0        4.081399    0.591361    2.008352
     37          1           0        4.779682    1.905959    1.052374
     38          1           0        5.522992    0.305839    1.032686
     39          1           0        1.861946    0.808506   -1.146444
     40          1           0        2.867823    3.110055    0.601223
     41          1           0        1.558980    3.150727   -0.579162
     42          1           0        3.226303    2.917988   -1.120628
     43          1           0        0.454768    1.483208    0.763272
     44          1           0        1.752386    1.181085    1.882803
     45          1           0        0.017229   -0.563860    1.863928
     46          1           0        1.598035   -1.219859    1.600196
 ---------------------------------------------------------------------

 SCF Done:  E(RB3LYP) =  -719.048966085     A.U. after    1 cycles

 The electronic state is 1-A.
 Alpha  occ. eigenvalues --  -19.13421 -14.29501 -10.21782 -10.21700 -10.19758
 Alpha  occ. eigenvalues --  -10.18705 -10.18158 -10.18097 -10.17780 -10.17509
 Alpha  occ. eigenvalues --  -10.17415 -10.17413 -10.17323 -10.17228 -10.17163
 Alpha  occ. eigenvalues --  -10.16756 -10.16580  -1.02580  -0.86903  -0.83088
 Alpha  occ. eigenvalues --   -0.80348  -0.77285  -0.76459  -0.71912  -0.70901
 Alpha  occ. eigenvalues --   -0.68683  -0.65887  -0.64324  -0.62994  -0.61743
 Alpha  occ. eigenvalues --   -0.57976  -0.55350  -0.53712  -0.50863  -0.48860
 Alpha  occ. eigenvalues --   -0.48233  -0.47243  -0.46699  -0.45713  -0.45028
 Alpha  occ. eigenvalues --   -0.43579  -0.43328  -0.42520  -0.42137  -0.41672
 Alpha  occ. eigenvalues --   -0.40860  -0.39553  -0.38856  -0.38054  -0.38009
 Alpha  occ. eigenvalues --   -0.37047  -0.36658  -0.36043  -0.34696  -0.33789
 Alpha  occ. eigenvalues --   -0.33611  -0.33476  -0.32248  -0.31872  -0.31099
 Alpha  occ. eigenvalues --   -0.30700  -0.30166  -0.29251  -0.28627  -0.24843
 Alpha  occ. eigenvalues --   -0.23317  -0.22244
 Alpha virt. eigenvalues --    0.02523   0.06785   0.08962   0.09204   0.10209
 Alpha virt. eigenvalues --    0.10670   0.10826   0.11784   0.12988   0.13340
 Alpha virt. eigenvalues --    0.13628   0.14754   0.15045   0.15410   0.16011

 Mulliken charges:
               1
     1  C   -0.230003
     2  O   -0.234259
     3  C   -0.066851
     4  C   -0.009739
     5  C   -0.150079
     6  N   -0.518957
     7  C   -0.212754
     8  C   -0.053320
     9  C   -0.026288
    10  C   -0.101090
    11  C   -0.275140
    12  C    0.040454
    13  C   -0.400868
    14  C    0.033327
    15  C   -0.406995
    16  C   -0.190227
    17  C   -0.249078
    18  H    0.121344
    19  H    0.111736
    20  H    0.100104
    21  H    0.077555
    22  H    0.098507
    23  H    0.087260
    24  H    0.083438
    25  H    0.092308
    26  H    0.232621
    27  H    0.219815
    28  H    0.103454
    29  H    0.092584
    30  H    0.087645
    31  H    0.075526
    32  H    0.080850
    33  H    0.090589
    34  H    0.106803
    35  H    0.066625
    36  H    0.113232
    37  H    0.112944
    38  H    0.109327
    39  H    0.081667
    40  H    0.113581
    41  H    0.107814
    42  H    0.105722
    43  H    0.096749
    44  H    0.090249
    45  H    0.092291
    46  H    0.099525
 Sum of Mulliken charges =  -0.00000

 Dipole moment (field-independent basis, Debye):
    X=              0.1622    Y=             -0.0686    Z=              0.1527  Tot=              0.2331
 Quadrupole moment (field-independent basis, Debye-Ang):
   XX=           -108.4161   YY=           -108.4637   ZZ=           -105.2928
   XY=             -1.3158   XZ=             -0.6614   YZ=             -2.3780

  Exact polarizability: 215.082  -0.992 161.650  -2.712   2.600 144.780
 Approx polarizability: 269.833   0.378 230.135  -3.490   4.605 230.066

                      1                      2                      3
                      A                      A                      A
 Frequencies --     29.0809                38.1583                49.7858
 Red. masses --      3.6652                 3.6868                 3.1381
 Frc consts  --      0.0018                 0.0032                 0.0046
 IR Inten    --      0.0070                 0.0527                 0.0111

                      4                      5                      6
                      A                      A                      A
 Frequencies --     66.0426                98.0857               108.6612
 Red. masses --      2.9934                 2.7696                 3.1895
 Frc consts  --      0.0077                 0.0157                 0.0222
 IR Inten    --      2.3401                 0.0661                 2.3878

                      7                      8                      9
                      A                      A                      A
 Frequencies --    126.6890               138.2569               162.5492
 Red. masses --      2.1155                 1.9873                 3.2833
 Frc consts  --      0.0200                 0.0224                 0.0511
 IR Inten    --      3.1304                 7.1684                 0.0746

                     10                     11                     12
                      A                      A                      A
 Frequencies --    188.4957               210.7108               219.7756
 Red. masses --      2.1994                 2.3485                 1.0865
 Frc consts  --      0.0460                 0.0614                 0.0309
 IR Inten    --      5.6169                 0.6412                 1.7683

                     13                     14                     15
                      A                      A                      A
 Frequencies --    226.9971               240.9720               255.1586
 Red. masses --      1.1394                 1.3500                 2.2772
 Frc consts  --      0.0346                 0.0462                 0.0874
 IR Inten    --     39.0268                 2.0214                10.1698

                     16                     17                     18
                      A                      A                      A
 Frequencies --    261.3748               278.6984               283.2409
 Red. masses --      1.9646                 2.6023                 2.3169
 Frc consts  --      0.0791                 0.1191                 0.1095
 IR Inten    --      0.1946                 0.4052                 0.0757

                     19                     20                     21
                      A                      A                      A
 Frequencies --    295.0142               318.6949               332.2040
 Red. masses --      2.0298                 2.7299                 2.7721
 Frc consts  --      0.1041                 0.1634                 0.1802
 IR Inten    --      0.8138                 1.0835                 0.4398

                     22                     23                     24
                      A                      A                      A
 Frequencies --    338.6722               372.4592               393.3060
 Red. masses --      3.1699                 2.3499                 2.8145
 Frc consts  --      0.2142                 0.1921                 0.2565
 IR Inten    --      0.5556                 0.0891                 0.2891

                     25                     26                     27
                      A                      A                      A
 Frequencies --    422.8081               449.1727               493.7541
 Red. masses --      2.8129                 2.3263                 2.7198
 Frc consts  --      0.2963                 0.2765                 0.3907
 IR Inten    --      4.1617                 1.1676                 2.1758

                     28                     29                     30
                      A                      A                      A
 Frequencies --    512.2185               548.8097               586.1045
 Red. masses --      1.9866                 2.5672                 3.2621
 Frc consts  --      0.3071                 0.4556                 0.6602
 IR Inten    --      5.1643                 0.0850                 2.3374

                     31                     32                     33
                      A                      A                      A
 Frequencies --    610.2951               676.2546               720.1997
 Red. masses --      2.9804                 1.8601                 1.9161
 Frc consts  --      0.6540                 0.5012                 0.5856
 IR Inten    --      7.5851                 1.9443                 6.9204

                     34                     35                     36
                      A                      A                      A
 Frequencies --    749.1215               767.1292               827.5055
 Red. masses --      2.4198                 2.1394                 1.7024
 Frc consts  --      0.8001                 0.7418                 0.6868
 IR Inten    --      7.0830                 6.7012                36.5364

                     37                     38                     39
                      A                      A                      A
 Frequencies --    834.5965               866.1245               882.5073
 Red. masses --      1.3939                 2.1664                 2.0981
 Frc consts  --      0.5721                 0.9575                 0.9627
 IR Inten    --     78.7975                 6.9581                 2.0386

                     40                     41                     42
                      A                      A                      A
 Frequencies --    909.2616               918.7629               934.4943
 Red. masses --      1.9879                 1.5907                 1.4994
 Frc consts  --      0.9683                 0.7911                 0.7715
 IR Inten    --      2.8951                 1.2022                10.1269

                     43                     44                     45
                      A                      A                      A
 Frequencies --    940.7384               947.4966               968.4108
 Red. masses --      1.8191                 1.8683                 2.3580
 Frc consts  --      0.9485                 0.9882                 1.3029
 IR Inten    --     12.4643                 5.4475                 9.3862

                     46                     47                     48
                      A                      A                      A
 Frequencies --    988.3972              1000.7737              1014.3525
 Red. masses --      2.2110                 1.8866                 1.3572
 Frc consts  --      1.2726                 1.1132                 0.8227
 IR Inten    --      6.4954                 5.2224                 0.2111

                     49                     50                     51
                      A                      A                      A
 Frequencies --   1015.0703              1032.1310              1041.0522
 Red. masses --      2.0615                 1.9338                 2.0427
 Frc consts  --      1.2515                 1.2137                 1.3044
 IR Inten    --      1.7884                 1.9090                 3.1049

                     52                     53                     54
                      A                      A                      A
 Frequencies --   1069.2004              1071.1818              1102.4382
 Red. masses --      1.7841                 2.8628                 2.1044
 Frc consts  --      1.2017                 1.9354                 1.5069
 IR Inten    --      1.7482                 3.1493                 1.5624

                     55                     56                     57
                      A                      A                      A
 Frequencies --   1104.9861              1131.3814              1135.5762
 Red. masses --      2.1382                 1.7539                 1.9181
 Frc consts  --      1.5382                 1.3227                 1.4573
 IR Inten    --      3.3647                 0.2230                 0.4201

                     58                     59                     60
                      A                      A                      A
 Frequencies --   1138.2458              1150.9828              1159.3599
 Red. masses --      2.1224                 2.5750                 3.3029
 Frc consts  --      1.6202                 2.0098                 2.6157
 IR Inten    --     22.1326                67.1797                91.8575

                     61                     62                     63
                      A                      A                      A
 Frequencies --   1173.6142              1177.9471              1184.9197
 Red. masses --      1.4629                 1.9897                 1.3184
 Frc consts  --      1.1872                 1.6266                 1.0906
 IR Inten    --      8.0092                 0.1252                 6.0433

                     64                     65                     66
                      A                      A                      A
 Frequencies --   1219.1387              1227.6741              1245.5535
 Red. masses --      1.4297                 1.3702                 1.4217
 Frc consts  --      1.2520                 1.2167                 1.2995
 IR Inten    --     22.9683                 4.6494                 1.1982

                     67                     68                     69
                      A                      A                      A
 Frequencies --   1258.8800              1261.5528              1283.7483
 Red. masses --      1.2759                 1.2383                 1.2979
 Frc consts  --      1.1913                 1.1612                 1.2602
 IR Inten    --      4.7116                 4.3459                 0.7342

                     70                     71                     72
                      A                      A                      A
 Frequencies --   1288.0379              1298.1664              1305.3435
 Red. masses --      1.2864                 1.1242                 1.1155
 Frc consts  --      1.2574                 1.1162                 1.1199
 IR Inten    --      4.9236                 0.9646                 3.8933

                     73                     74                     75
                      A                      A                      A
 Frequencies --   1320.0288              1335.6114              1337.9019
 Red. masses --      1.2227                 1.2130                 1.2698
 Frc consts  --      1.2553                 1.2749                 1.3391
 IR Inten    --      1.1601                 0.4352                 5.2076

                     76                     77                     78
                      A                      A                      A
 Frequencies --   1353.2929              1360.4244              1368.6535
 Red. masses --      1.3917                 1.3480                 1.4221
 Frc consts  --      1.5017                 1.4699                 1.5696
 IR Inten    --      0.4496                 1.2309                 1.1899

                     79                     80                     81
                      A                      A                      A
 Frequencies --   1376.9049              1386.1649              1393.2115
 Red. masses --      1.3461                 1.3170                 1.4753
 Frc consts  --      1.5036                 1.4909                 1.6872
 IR Inten    --      4.8333                 1.2055                 0.9120

                     82                     83                     84
                      A                      A                      A
 Frequencies --   1396.9191              1402.7098              1413.4302
 Red. masses --      1.3469                 1.3021                 1.2757
 Frc consts  --      1.5485                 1.5095                 1.5015
 IR Inten    --      1.1476                 0.8926                 7.4981

                     85                     86                     87
                      A                      A                      A
 Frequencies --   1417.1340              1421.4023              1436.5242
 Red. masses --      1.3696                 1.3204                 1.3550
 Frc consts  --      1.6205                 1.5718                 1.6475
 IR Inten    --     15.7369                 1.3834                 7.2753

                     88                     89                     90
                      A                      A                      A
 Frequencies --   1440.6385              1476.6637              1478.3135
 Red. masses --      1.3651                 1.0905                 1.1506
 Frc consts  --      1.6693                 1.4010                 1.4816
 IR Inten    --     17.7311                 2.4558                 2.0078

                     91                     92                     93
                      A                      A                      A
 Frequencies --   1485.0904              1485.9557              1491.0786
 Red. masses --      1.0980                 1.0516                 1.0807
 Frc consts  --      1.4268                 1.3681                 1.4157
 IR Inten    --      4.2246                 3.8792                 1.0872

                     94                     95                     96
                      A                      A                      A
 Frequencies --   1496.0995              1499.3535              1500.6850
 Red. masses --      1.0503                 1.0621                 1.0510
 Frc consts  --      1.3851                 1.4067                 1.3946
 IR Inten    --      5.5262                 2.3311                11.5151

                     97                     98                     99
                      A                      A                      A
 Frequencies --   1502.9082              1512.0140              1518.9578
 Red. masses --      1.0631                 1.0559                 1.0875
 Frc consts  --      1.4148                 1.4223                 1.4784
 IR Inten    --      1.5432                 1.1966                 1.8515

                    100                    101                    102
                      A                      A                      A
 Frequencies --   1521.0306              1525.0243              1649.3677
 Red. masses --      1.0817                 1.0826                 1.0858
 Frc consts  --      1.4744                 1.4834                 1.7404
 IR Inten    --      3.7708                 7.1422                35.7277

                    103                    104                    105
                      A                      A                      A
 Frequencies --   1721.8335              2950.9542              2953.4625
 Red. masses --      7.3261                 1.0640                 1.0646
 Frc consts  --     12.7970                 5.4588                 5.4715
 IR Inten    --      1.2552                37.1833                96.2151

                    106                    107                    108
                      A                      A                      A
 Frequencies --   2970.9382              2976.3233              2989.1767
 Red. masses --      1.0418                 1.0792                 1.0826
 Frc consts  --      5.4177                 5.6327                 5.6992
 IR Inten    --     77.1675                20.0441                26.5640

                    109                    110                    111
                      A                      A                      A
 Frequencies --   2996.3578              3000.6868              3008.3859
 Red. masses --      1.0876                 1.0946                 1.0662
 Frc consts  --      5.7530                 5.8072                 5.6854
 IR Inten    --     24.9418                22.8727                20.5662

                    112                    113                    114
                      A                      A                      A
 Frequencies --   3011.2836              3017.4342              3025.9732
 Red. masses --      1.0618                 1.1015                 1.0402
 Frc consts  --      5.6727                 5.9089                 5.6116
 IR Inten    --     12.9667                47.5158                34.1672

                    115                    116                    117
                      A                      A                      A
 Frequencies --   3027.8198              3030.4170              3034.0565
 Red. masses --      1.0762                 1.0515                 1.0804
 Frc consts  --      5.8130                 5.6894                 5.8598
 IR Inten    --     31.6609                11.5518                 4.8702

                    118                    119                    120
                      A                      A                      A
 Frequencies --   3035.7024              3038.6193              3048.5888
 Red. masses --      1.0699                 1.0658                 1.0916
 Frc consts  --      5.8094                 5.7981                 5.9776
 IR Inten    --     60.9707                41.3675                47.4744

                    121                    122                    123
                      A                      A                      A
 Frequencies --   3058.7750              3074.9401              3090.8755
 Red. masses --      1.0972                 1.0958                 1.1004
 Frc consts  --      6.0484                 6.1046                 6.1941
 IR Inten    --     38.4890                19.7390                26.6107

                    124                    125                    126
                      A                      A                      A
 Frequencies --   3093.1956              3094.6673              3100.9878
 Red. masses --      1.1010                 1.1002                 1.0841
 Frc consts  --      6.2064                 6.2082                 6.1419
 IR Inten    --     45.0475                41.0763                38.4880

                    127                    128                    129
                      A                      A                      A
 Frequencies --   3105.4200              3107.9408              3110.5674
 Red. masses --      1.0873                 1.0963                 1.0990
 Frc consts  --      6.1778                 6.2392                 6.2649
 IR Inten    --     14.8505                32.4179                36.7264

                    130                    131                    132
                      A                      A                      A
 Frequencies --   3136.6622              3500.7878              3587.9499
 Red. masses --      1.0922                 1.0487                 1.0935
 Frc consts  --      6.3310                 7.5726                 8.2940
 IR Inten    --     46.9191                 1.9440                 1.8630

 - Thermochemistry -
 -------------------
 Temperature   298.150 Kelvin.  Pressure   1.00000 Atm.
 Atom     1 has atomic number  6 and mass  12.00000

 Molecular mass:   239.22491 amu.
 Principal axes and moments of inertia in atomic units:
                           1         2         3
     Eigenvalues --  2242.906048495.680679554.90733
           X            0.99997   0.00561   0.00585
           Y           -0.00553   0.99990  -0.01303
           Z           -0.00593   0.01300   0.99990
 This molecule is an asymmetric top.
 Rotational symmetry number  1.
 Warning -- assumption of classical behavior for rotation
           may cause significant error
 Rotational temperatures (Kelvin)      0.03862     0.01020     0.00906
 Rotational constants (GHZ):           0.80464     0.21243     0.18888
 Zero-point vibrational energy    1111826.2 (Joules/Mol)
                                  265.73285 (Kcal/Mol)
 Warning -- explicit consideration of  31 degrees of freedom as
           vibrations may cause significant error
 Vibrational temperatures:     41.84    54.90    71.63    95.02   141.12
          (Kelvin)            156.34   182.28   198.92   233.87   271.20
                              303.17   316.21   326.60   346.70   367.12
                              376.06   400.98   407.52   424.46   458.53
                              477.97   487.27   535.89   565.88   608.33
                              646.26   710.40   736.97   789.61   843.27
                              878.08   972.98  1036.21  1077.82  1103.73
                             1190.60  1200.80  1246.16  1269.73  1308.22
                             1321.89  1344.53  1353.51  1363.24  1393.33
                             1422.08  1439.89  1459.43  1460.46  1485.01
                             1497.84  1538.34  1541.19  1586.16  1589.83
                             1627.81  1633.84  1637.68  1656.01  1668.06
                             1688.57  1694.80  1704.84  1754.07  1766.35
                             1792.07  1811.25  1815.09  1847.03  1853.20
                             1867.77  1878.10  1899.23  1921.65  1924.94
                             1947.09  1957.35  1969.19  1981.06  1994.38
                             2004.52  2009.86  2018.19  2033.61  2038.94
                             2045.08  2066.84  2072.76  2124.59  2126.96
                             2136.71  2137.96  2145.33  2152.55  2157.24
                             2159.15  2162.35  2175.45  2185.44  2188.42
                             2194.17  2373.07  2477.33  4245.76  4249.37
                             4274.52  4282.27  4300.76  4311.09  4317.32
                             4328.40  4332.57  4341.41  4353.70  4356.36
                             4360.09  4365.33  4367.70  4371.90  4386.24
                             4400.90  4424.15  4447.08  4450.42  4452.54
                             4461.63  4468.01  4471.63  4475.41  4512.96
                             5036.85  5162.26

 Zero-point correction=                           0.423472 (Hartree/Particle)
 Thermal correction to Energy=                    0.443100
 Thermal correction to Enthalpy=                  0.444044
 Thermal correction to Gibbs Free Energy=         0.375685
 Sum of electronic and zero-point Energies=           -718.625494
 Sum of electronic and thermal Energies=              -718.605866
 Sum of electronic and thermal Enthalpies=            -718.604922
 Sum of electronic and thermal Free Energies=         -718.673281

                     E (Thermal)             CV                S
                      KCal/Mol        Cal/Mol-Kelvin    Cal/Mol-Kelvin
 Total                  278.049             75.179            143.873
 Electronic               0.000              0.000              0.000
 Translational            0.889              2.981             42.318
 Rotational               0.889              2.981             33.565
 Vibrational            276.272             69.217             67.990
 Vibration     1          0.593              1.984              5.891
 Vibration     2          0.594              1.982              5.352
 Vibration     3          0.595              1.978              4.826
 Vibration     4          0.597              1.970              4.268
 Vibration     5          0.604              1.951              3.492
 Vibration     6          0.606              1.942              3.293
 Vibration     7          0.611              1.926              2.996
 Vibration     8          0.614              1.915              2.828
 Vibration     9          0.623              1.888              2.520
 Vibration    10          0.633              1.856              2.243
 Vibration    11          0.643              1.824              2.038
 Vibration    12          0.647              1.811              1.961
 Vibration    13          0.651              1.800              1.903
 Vibration    14          0.658              1.778              1.796
 Vibration    15          0.666              1.754              1.695
 Vibration    16          0.669              1.743              1.653
 Vibration    17          0.679              1.713              1.542
 Vibration    18          0.682              1.705              1.514
 Vibration    19          0.689              1.683              1.445
 Vibration    20          0.705              1.638              1.317
 Vibration    21          0.714              1.611              1.249
 Vibration    22          0.719              1.598              1.218
 Vibration    23          0.744              1.529              1.070
 Vibration    24          0.761              1.484              0.988
 Vibration    25          0.785              1.421              0.882
 Vibration    26          0.808              1.363              0.798
 Vibration    27          0.849              1.264              0.674
 Vibration    28          0.867              1.223              0.628
 Vibration    29          0.904              1.142              0.547
 Vibration    30          0.943              1.061              0.474
 Vibration    31          0.969              1.010              0.432

                           ! Non-Optimized Parameters !
 Normal termination of Gaussian 16 at Mon May 22 15:21:20 2023.
