 Gaussian 16, Revision A.03,
 Gaussian 16:  ES64L-G16RevA.03 25-Dec-2016

 -----------------------------
 # opt freq b3lyp/6-31g(2df,p)
 -----------------------------

 -------------------
 Title Card Required
 -------------------
 Symbolic Z-matrix:
 Charge =  0 Multiplicity = 1

 SCF Done:  E(RB3LYP) =  -582.880580298     A.U. after   12 cycles
 SCF Done:  E(RB3LYP) =  -582.886431973     A.U. after   11 cycles
 SCF Done:  E(RB3LYP) =  -582.888808295     A.U. after   10 cycles
 SCF Done:  E(RB3LYP) =  -582.890035859     A.U. after   10 cycles
 SCF Done:  E(RB3LYP) =  -582.890624003     A.U. after   11 cycles
 SCF Done:  E(RB3LYP) =  -582.890828656     A.U. after    9 cycles
 SCF Done:  E(RB3LYP) =  -582.890972098     A.U. after    9 cycles
 SCF Done:  E(RB3LYP) =  -582.891010296     A.U. after    9 cycles
 SCF Done:  E(RB3LYP) =  -582.891025185     A.U. after    9 cycles
 SCF Done:  E(RB3LYP) =  -582.891030223     A.U. after    8 cycles
 SCF Done:  E(RB3LYP) =  -582.891033352     A.U. after    8 cycles
 SCF Done:  E(RB3LYP) =  -582.891033941     A.U. after    7 cycles
 SCF Done:  E(RB3LYP) =  -582.891034075     A.U. after    7 cycles
 SCF Done:  E(RB3LYP) =  -582.891034109     A.U. after    6 cycles
 Optimization completed.
    -- Stationary point found.
 Normal termination of Gaussian 16 at Mon May 22 18:07:29 2023.

 ----------------------------------------------------------------------
 #N Geom=AllCheck Guess=TCheck SCRF=Check GenChk RB3LYP/6-31G(2df,p) Fr
 eq
 ----------------------------------------------------------------------

 Structure from the checkpoint file:  "COCCCqCrC1CCCCCO1.chk"
 -------------------
 Title Card Required
 -------------------
 Charge =  0 Multiplicity = 1

                         Standard orientation:
 ---------------------------------------------------------------------
 Center     Atomic      Atomic             Coordinates (Angstroms)
 Number     Number       Type             X           Y           Z
 ---------------------------------------------------------------------
      1          6           0        5.457427    0.295270   -0.154441
      2          8           0        4.136157    0.767315   -0.067385
      3          6           0        3.177429   -0.268161   -0.124082
      4          6           0        1.790600    0.355932   -0.017680
      5          6           0        0.641921   -0.666052   -0.103556
      6          6           0        0.519026   -1.522846    1.165092
      7          6           0       -0.690879    0.012841   -0.513013
      8          6           0       -1.215383    1.052597    0.485385
      9          6           0       -2.503564    1.772577    0.045920
     10          6           0       -3.792765    1.004438    0.367135
     11          6           0       -3.929065   -0.347756   -0.340079
     12          6           0       -2.754787   -1.304891   -0.110000
     13          8           0       -1.619785   -1.003547   -0.903122
     14          1           0        6.120992    1.162096   -0.100773
     15          1           0        5.642754   -0.234796   -1.102817
     16          1           0        5.703765   -0.391451    0.671765
     17          1           0        3.353588   -0.989846    0.691255
     18          1           0        3.272262   -0.826611   -1.072313
     19          1           0        1.698768    1.091254   -0.827034
     20          1           0        1.738731    0.918000    0.922408
     21          1           0        0.860288   -1.347344   -0.937455
     22          1           0        0.331298   -0.910329    2.053885
     23          1           0        1.436524   -2.089351    1.350330
     24          1           0       -0.294073   -2.246858    1.068059
     25          1           0       -0.481749    0.558001   -1.446273
     26          1           0       -0.417904    1.794069    0.602500
     27          1           0       -1.361475    0.612643    1.479109
     28          1           0       -2.452577    1.986275   -1.030319
     29          1           0       -2.550119    2.745849    0.548289
     30          1           0       -4.657396    1.630808    0.116434
     31          1           0       -3.839917    0.843324    1.453705
     32          1           0       -4.031169   -0.204904   -1.423215
     33          1           0       -4.848809   -0.839826    0.002239
     34          1           0       -3.045918   -2.314817   -0.420196
     35          1           0       -2.508597   -1.360030    0.960396
 ---------------------------------------------------------------------

 SCF Done:  E(RB3LYP) =  -582.891034109     A.U. after    1 cycles

 The electronic state is 1-A.
 Alpha  occ. eigenvalues --  -19.13414 -19.12512 -10.22360 -10.22166 -10.22012
 Alpha  occ. eigenvalues --  -10.22009 -10.18091 -10.17814 -10.17762 -10.17709
 Alpha  occ. eigenvalues --  -10.17483 -10.17366 -10.16906  -1.02761  -1.01513
 Alpha  occ. eigenvalues --   -0.81159  -0.79746  -0.76265  -0.72578  -0.67859
 Alpha  occ. eigenvalues --   -0.67348  -0.66317  -0.61265  -0.57974  -0.56573
 Alpha  occ. eigenvalues --   -0.53575  -0.49265  -0.48393  -0.48007  -0.47351
 Alpha  occ. eigenvalues --   -0.45541  -0.44743  -0.43135  -0.42893  -0.41312
 Alpha  occ. eigenvalues --   -0.40268  -0.39985  -0.39599  -0.38173  -0.36722
 Alpha  occ. eigenvalues --   -0.35917  -0.34826  -0.34390  -0.33150  -0.32493
 Alpha  occ. eigenvalues --   -0.32135  -0.31704  -0.31262  -0.30026  -0.28345
 Alpha  occ. eigenvalues --   -0.25011  -0.23708
 Alpha virt. eigenvalues --    0.07994   0.09084   0.09820   0.10086   0.12241
 Alpha virt. eigenvalues --    0.12714   0.13124   0.13650   0.14064   0.14294
 Alpha virt. eigenvalues --    0.15263   0.15623   0.16226   0.16563   0.17032

 Mulliken charges:
               1
     1  C   -0.226657
     2  O   -0.231086
     3  C   -0.061456
     4  C   -0.213395
     5  C    0.015668
     6  C   -0.407964
     7  C    0.123860
     8  C   -0.229917
     9  C   -0.192531
    10  C   -0.187019
    11  C   -0.189359
    12  C   -0.065548
    13  O   -0.286667
    14  H    0.124609
    15  H    0.101330
    16  H    0.100682
    17  H    0.084921
    18  H    0.083783
    19  H    0.101208
    20  H    0.103878
    21  H    0.076786
    22  H    0.111410
    23  H    0.112910
    24  H    0.125980
    25  H    0.074157
    26  H    0.105379
    27  H    0.097568
    28  H    0.097163
    29  H    0.090862
    30  H    0.091504
    31  H    0.090646
    32  H    0.102408
    33  H    0.088184
    34  H    0.100182
    35  H    0.086522
 Sum of Mulliken charges =  -0.00000

 Dipole moment (field-independent basis, Debye):
    X=             -0.1307    Y=             -0.2831    Z=              0.7988  Tot=              0.8575
 Quadrupole moment (field-independent basis, Debye-Ang):
   XX=            -76.1374   YY=            -83.7073   ZZ=            -83.5606
   XY=             -3.7929   XZ=             -2.1213   YZ=             -1.2940

  Exact polarizability: 159.524   1.270 117.596  -0.680  -0.955 105.604
 Approx polarizability: 180.223   3.680 172.098  -1.230  -0.339 169.493

                      1                      2                      3
                      A                      A                      A
 Frequencies --     32.6331                50.1610                53.2461
 Red. masses --      3.1598                 2.0464                 3.5253
 Frc consts  --      0.0020                 0.0030                 0.0059
 IR Inten    --      0.5990                 2.5984                 0.3566

                      4                      5                      6
                      A                      A                      A
 Frequencies --     73.8350               117.3921               125.3958
 Red. masses --      2.6738                 3.0768                 2.4589
 Frc consts  --      0.0086                 0.0250                 0.0228
 IR Inten    --      0.8164                 1.0120                 1.9633

                      7                      8                      9
                      A                      A                      A
 Frequencies --    164.6571               205.0368               227.0714
 Red. masses --      2.7457                 2.6858                 2.7465
 Frc consts  --      0.0439                 0.0665                 0.0834
 IR Inten    --      0.7999                 1.3219                 0.6473

                     10                     11                     12
                      A                      A                      A
 Frequencies --    233.2724               236.7676               265.2086
 Red. masses --      1.3058                 1.1733                 2.0743
 Frc consts  --      0.0419                 0.0388                 0.0860
 IR Inten    --      1.5682                 0.3640                 0.2623

                     13                     14                     15
                      A                      A                      A
 Frequencies --    287.9203               310.2162               342.2462
 Red. masses --      2.5456                 3.0976                 2.2063
 Frc consts  --      0.1243                 0.1756                 0.1523
 IR Inten    --      2.1249                 1.8226                 0.0536

                     16                     17                     18
                      A                      A                      A
 Frequencies --    346.5279               412.1260               429.9255
 Red. masses --      3.0162                 3.0766                 2.5409
 Frc consts  --      0.2134                 0.3079                 0.2767
 IR Inten    --      1.4689                 1.4901                 1.1797

                     19                     20                     21
                      A                      A                      A
 Frequencies --    490.9771               526.6302               556.8987
 Red. masses --      1.5482                 2.3524                 2.4791
 Frc consts  --      0.2199                 0.3844                 0.4530
 IR Inten    --      0.1262                 4.8537                 3.4877

                     22                     23                     24
                      A                      A                      A
 Frequencies --    617.3765               740.6006               795.4409
 Red. masses --      2.7452                 2.4847                 1.3434
 Frc consts  --      0.6165                 0.8029                 0.5008
 IR Inten    --      2.4619                 0.9873                 0.1189

                     25                     26                     27
                      A                      A                      A
 Frequencies --    809.6241               836.8703               857.6570
 Red. masses --      2.0472                 2.2063                 1.8182
 Frc consts  --      0.7906                 0.9104                 0.7880
 IR Inten    --      1.4082                 8.8375                 1.3006

                     28                     29                     30
                      A                      A                      A
 Frequencies --    871.9130               902.3295               945.2824
 Red. masses --      1.8594                 2.2710                 1.7889
 Frc consts  --      0.8328                 1.0894                 0.9418
 IR Inten    --      2.8271                 1.7362                13.6741

                     31                     32                     33
                      A                      A                      A
 Frequencies --    978.7059               983.4061               995.6359
 Red. masses --      1.6524                 2.1134                 2.2396
 Frc consts  --      0.9326                 1.2042                 1.3080
 IR Inten    --      9.5285                 5.2290                 5.7544

                     34                     35                     36
                      A                      A                      A
 Frequencies --   1004.1260              1007.3623              1036.7430
 Red. masses --      2.3439                 1.8964                 2.0435
 Frc consts  --      1.3924                 1.1339                 1.2941
 IR Inten    --     17.8958                 9.6518                 9.9826

                     37                     38                     39
                      A                      A                      A
 Frequencies --   1059.1554              1077.5276              1108.7302
 Red. masses --      2.4097                 1.5652                 2.0364
 Frc consts  --      1.5927                 1.0707                 1.4749
 IR Inten    --      0.3939                 6.4054                 1.6861

                     40                     41                     42
                      A                      A                      A
 Frequencies --   1129.3732              1147.3575              1161.5139
 Red. masses --      2.9125                 2.4050                 2.9243
 Frc consts  --      2.1888                 1.8654                 2.3244
 IR Inten    --    151.9727                19.6177                25.5987

                     43                     44                     45
                      A                      A                      A
 Frequencies --   1165.9875              1174.6245              1192.6348
 Red. masses --      5.7362                 1.4371                 1.5307
 Frc consts  --      4.5948                 1.1682                 1.2828
 IR Inten    --    196.6007                 0.1649                 5.2320

                     46                     47                     48
                      A                      A                      A
 Frequencies --   1199.6357              1228.0136              1239.3010
 Red. masses --      1.5559                 1.6421                 1.4126
 Frc consts  --      1.3193                 1.4590                 1.2783
 IR Inten    --      0.9413                23.7549                16.5347

                     49                     50                     51
                      A                      A                      A
 Frequencies --   1249.4547              1269.1163              1293.1374
 Red. masses --      1.3262                 1.3069                 1.2696
 Frc consts  --      1.2198                 1.2402                 1.2509
 IR Inten    --      7.7663                10.6109                 5.5141

                     52                     53                     54
                      A                      A                      A
 Frequencies --   1300.6991              1316.6530              1320.0691
 Red. masses --      1.2245                 1.1070                 1.1925
 Frc consts  --      1.2206                 1.1307                 1.2243
 IR Inten    --     11.6242                 0.1045                 6.7126

                     55                     56                     57
                      A                      A                      A
 Frequencies --   1331.5174              1362.2948              1366.1491
 Red. masses --      1.2058                 1.3498                 1.3381
 Frc consts  --      1.2595                 1.4760                 1.4714
 IR Inten    --      5.6770                 0.5640                 1.7842

                     58                     59                     60
                      A                      A                      A
 Frequencies --   1380.5703              1386.4397              1388.9580
 Red. masses --      1.3917                 1.3469                 1.4120
 Frc consts  --      1.5628                 1.5255                 1.6050
 IR Inten    --      8.4302                 0.7132                 1.5575

                     61                     62                     63
                      A                      A                      A
 Frequencies --   1395.5484              1406.7024              1418.0632
 Red. masses --      1.3475                 1.2645                 1.3988
 Frc consts  --      1.5462                 1.4742                 1.6572
 IR Inten    --      2.9155                 6.8113                 8.6250

                     64                     65                     66
                      A                      A                      A
 Frequencies --   1419.6090              1426.8690              1470.8239
 Red. masses --      1.2888                 1.3746                 1.0923
 Frc consts  --      1.5303                 1.6489                 1.3922
 IR Inten    --     14.3460                32.5447                 2.0465

                     67                     68                     69
                      A                      A                      A
 Frequencies --   1480.9317              1481.3724              1485.1457
 Red. masses --      1.0978                 1.1588                 1.0471
 Frc consts  --      1.4186                 1.4983                 1.3608
 IR Inten    --      3.5097                 0.2634                 4.6045

                     70                     71                     72
                      A                      A                      A
 Frequencies --   1486.0424              1490.4655              1493.2010
 Red. masses --      1.0856                 1.0829                 1.0980
 Frc consts  --      1.4125                 1.4174                 1.4424
 IR Inten    --      3.7126                 1.1119                 2.8845

                     73                     74                     75
                      A                      A                      A
 Frequencies --   1500.5933              1503.4901              1507.5038
 Red. masses --      1.0601                 1.0524                 1.0738
 Frc consts  --      1.4065                 1.4016                 1.4378
 IR Inten    --      0.6939                 8.7344                 5.0313

                     76                     77                     78
                      A                      A                      A
 Frequencies --   1510.6859              1532.5134              2943.0726
 Red. masses --      1.0653                 1.0934                 1.0550
 Frc consts  --      1.4325                 1.5131                 5.3839
 IR Inten    --      7.3954                 0.9045                32.8545

                     79                     80                     81
                      A                      A                      A
 Frequencies --   2965.1779              2974.2693              2976.4829
 Red. masses --      1.0429                 1.0966                 1.0833
 Frc consts  --      5.4025                 5.7158                 5.6545
 IR Inten    --     77.9099                49.8171                34.4825

                     82                     83                     84
                      A                      A                      A
 Frequencies --   2996.4123              3003.9725              3005.3950
 Red. masses --      1.0657                 1.0661                 1.1029
 Frc consts  --      5.6377                 5.6680                 5.8692
 IR Inten    --     19.7869                19.9141                59.3022

                     85                     86                     87
                      A                      A                      A
 Frequencies --   3009.4602              3015.4348              3017.3920
 Red. masses --      1.0826                 1.0624                 1.0618
 Frc consts  --      5.7768                 5.6916                 5.6960
 IR Inten    --     18.0963                18.5123                24.5466

                     88                     89                     90
                      A                      A                      A
 Frequencies --   3024.4178              3032.8971              3039.0734
 Red. masses --      1.0595                 1.0572                 1.0454
 Frc consts  --      5.7098                 5.7297                 5.6889
 IR Inten    --     29.6164                 4.3121                21.6575

                     91                     92                     93
                      A                      A                      A
 Frequencies --   3050.6819              3058.0118              3059.1300
 Red. masses --      1.0949                 1.0976                 1.0962
 Frc consts  --      6.0037                 6.0475                 6.0440
 IR Inten    --     50.0160                44.4185                42.0580

                     94                     95                     96
                      A                      A                      A
 Frequencies --   3065.9254              3068.8954              3076.7682
 Red. masses --      1.1017                 1.1019                 1.0994
 Frc consts  --      6.1012                 6.1147                 6.1318
 IR Inten    --     31.7651                91.8897                32.1130

                     97                     98                     99
                      A                      A                      A
 Frequencies --   3099.5551              3109.6439              3117.6454
 Red. masses --      1.0994                 1.0954                 1.0999
 Frc consts  --      6.2232                 6.2406                 6.2985
 IR Inten    --     39.5812                34.4899                24.9653

 - Thermochemistry -
 -------------------
 Temperature   298.150 Kelvin.  Pressure   1.00000 Atm.
 Atom     1 has atomic number  6 and mass  12.00000

 Molecular mass:   186.16198 amu.
 Principal axes and moments of inertia in atomic units:
                           1         2         3
     Eigenvalues --   909.959046045.740696503.38292
           X            0.99996  -0.00836  -0.00261
           Y            0.00828   0.99954  -0.02913
           Z            0.00285   0.02910   0.99957
 This molecule is an asymmetric top.
 Rotational symmetry number  1.
 Warning -- assumption of classical behavior for rotation
           may cause significant error
 Rotational temperatures (Kelvin)      0.09518     0.01433     0.01332
 Rotational constants (GHZ):           1.98332     0.29851     0.27751
 Zero-point vibrational energy     840014.2 (Joules/Mol)
                                  200.76821 (Kcal/Mol)
 Warning -- explicit consideration of  22 degrees of freedom as
           vibrations may cause significant error
 Vibrational temperatures:     46.95    72.17    76.61   106.23   168.90
          (Kelvin)            180.42   236.90   295.00   326.71   335.63
                              340.66   381.58   414.25   446.33   492.42
                              498.58   592.96   618.57   706.41   757.70
                              801.25   888.27  1065.56  1144.46  1164.87
                             1204.07  1233.98  1254.49  1298.25  1360.05
                             1408.14  1414.90  1432.50  1444.71  1449.37
                             1491.64  1523.89  1550.32  1595.22  1624.92
                             1650.79  1671.16  1677.60  1690.02  1715.94
                             1726.01  1766.84  1783.08  1797.69  1825.98
                             1860.54  1871.42  1894.37  1899.29  1915.76
                             1960.04  1965.58  1986.33  1994.78  1998.40
                             2007.88  2023.93  2040.28  2042.50  2052.95
                             2116.19  2130.73  2131.36  2136.79  2138.08
                             2144.45  2148.38  2159.02  2163.19  2168.96
                             2173.54  2204.94  4234.43  4266.23  4279.31
                             4282.50  4311.17  4322.05  4324.09  4329.94
                             4338.54  4341.35  4351.46  4363.66  4372.55
                             4389.25  4399.80  4401.41  4411.18  4415.46
                             4426.78  4459.57  4474.08  4485.60

 Zero-point correction=                           0.319945 (Hartree/Particle)
 Thermal correction to Energy=                    0.334812
 Thermal correction to Enthalpy=                  0.335756
 Thermal correction to Gibbs Free Energy=         0.277297
 Sum of electronic and zero-point Energies=           -582.571090
 Sum of electronic and thermal Energies=              -582.556222
 Sum of electronic and thermal Enthalpies=            -582.555278
 Sum of electronic and thermal Free Energies=         -582.613738

                     E (Thermal)             CV                S
                      KCal/Mol        Cal/Mol-Kelvin    Cal/Mol-Kelvin
 Total                  210.098             55.345            123.039
 Electronic               0.000              0.000              0.000
 Translational            0.889              2.981             41.570
 Rotational               0.889              2.981             31.948
 Vibrational            208.320             49.384             49.520
 Vibration     1          0.594              1.983              5.663
 Vibration     2          0.595              1.978              4.811
 Vibration     3          0.596              1.976              4.693
 Vibration     4          0.599              1.966              4.048
 Vibration     5          0.608              1.935              3.143
 Vibration     6          0.610              1.928              3.015
 Vibration     7          0.623              1.886              2.496
 Vibration     8          0.640              1.833              2.087
 Vibration     9          0.651              1.800              1.902
 Vibration    10          0.654              1.790              1.854
 Vibration    11          0.656              1.784              1.827
 Vibration    12          0.671              1.737              1.627
 Vibration    13          0.685              1.696              1.486
 Vibration    14          0.699              1.654              1.361
 Vibration    15          0.721              1.591              1.202
 Vibration    16          0.725              1.582              1.182
 Vibration    17          0.776              1.444              0.919
 Vibration    18          0.791              1.405              0.859
 Vibration    19          0.847              1.270              0.681
 Vibration    20          0.882              1.191              0.595
 Vibration    21          0.912              1.125              0.530
 Vibration    22          0.977              0.995              0.421

 Optimization completed.
    -- Stationary point found.
 Normal termination of Gaussian 16 at Mon May 22 20:01:19 2023.
