 Gaussian 16, Revision A.03,
 Gaussian 16:  ES64L-G16RevA.03 25-Dec-2016

 -----------------------------
 # opt freq b3lyp/6-31g(2df,p)
 -----------------------------

 -------------------
 Title Card Required
 -------------------
 Symbolic Z-matrix:
 Charge =  0 Multiplicity = 1

 SCF Done:  E(RB3LYP) =  -994.234264577     A.U. after   15 cycles
 SCF Done:  E(RB3LYP) =  -994.280692997     A.U. after   13 cycles
 SCF Done:  E(RB3LYP) =  -994.306276842     A.U. after   15 cycles
 SCF Done:  E(RB3LYP) =  -994.316672683     A.U. after   11 cycles
 SCF Done:  E(RB3LYP) =  -994.316805962     A.U. after    7 cycles
 SCF Done:  E(RB3LYP) =  -994.326004455     A.U. after   11 cycles
 SCF Done:  E(RB3LYP) =  -994.332502715     A.U. after   12 cycles
 SCF Done:  E(RB3LYP) =  -994.341552916     A.U. after   12 cycles
 SCF Done:  E(RB3LYP) =  -994.345268911     A.U. after   12 cycles
 SCF Done:  E(RB3LYP) =  -994.348157874     A.U. after   13 cycles
 SCF Done:  E(RB3LYP) =  -994.356007334     A.U. after   12 cycles
 SCF Done:  E(RB3LYP) =  -994.356040198     A.U. after   12 cycles
 SCF Done:  E(RB3LYP) =  -994.356078905     A.U. after   11 cycles
 SCF Done:  E(RB3LYP) =  -994.356083469     A.U. after    8 cycles
 SCF Done:  E(RB3LYP) =  -994.356102942     A.U. after   10 cycles
 SCF Done:  E(RB3LYP) =  -994.356104350     A.U. after    8 cycles
 SCF Done:  E(RB3LYP) =  -994.356104663     A.U. after    7 cycles
 SCF Done:  E(RB3LYP) =  -994.356104790     A.U. after    6 cycles
 SCF Done:  E(RB3LYP) =  -994.356104830     A.U. after    6 cycles
 Optimization completed.
    -- Stationary point found.
 Normal termination of Gaussian 16 at Sun May 28 10:33:16 2023.

 ----------------------------------------------------------------------
 #N Geom=AllCheck Guess=TCheck SCRF=Check GenChk RB3LYP/6-31G(2df,p) Fr
 eq
 ----------------------------------------------------------------------

 Structure from the checkpoint file:  "COCCdC1CdC1CC1CdCCqdNrCS1.chk"
 -------------------
 Title Card Required
 -------------------
 Charge =  0 Multiplicity = 1

                         Standard orientation:
 ---------------------------------------------------------------------
 Center     Atomic      Atomic             Coordinates (Angstroms)
 Number     Number       Type             X           Y           Z
 ---------------------------------------------------------------------
      1          6           0        5.943636   -0.656433    0.427275
      2          8           0        4.906023    0.288458    0.476574
      3          6           0        4.000313    0.159628   -0.615965
      4          6           0        2.992789    1.261691   -0.583580
      5          6           0        1.707796    1.066202   -0.306648
      6          6           0        0.358845    1.509816   -0.109847
      7          6           0        0.589708    0.215506    0.024241
      8          6           0        0.148153   -1.156778    0.348023
      9          6           0       -1.375436   -1.382533    0.509856
     10          6           0       -1.980530   -0.506477    1.569537
     11          6           0       -2.979820    0.370579    1.424335
     12          6           0       -3.637208    0.718773    0.154946
     13          7           0       -4.730834    1.372696    0.058937
     14          6           0       -2.928542    0.328326   -1.119163
     15         16           0       -2.308587   -1.390330   -1.072384
     16          1           0        6.595262   -0.477849    1.286933
     17          1           0        6.542278   -0.566775   -0.494738
     18          1           0        5.565564   -1.691688    0.481119
     19          1           0        3.498294   -0.822699   -0.573959
     20          1           0        4.578014    0.181343   -1.557831
     21          1           0        3.348618    2.268945   -0.776867
     22          1           0       -0.345220    2.324324   -0.070652
     23          1           0        0.652884   -1.447998    1.282449
     24          1           0        0.532367   -1.841244   -0.416277
     25          1           0       -1.485099   -2.418910    0.852892
     26          1           0       -1.547851   -0.641939    2.560213
     27          1           0       -3.354249    0.889784    2.304126
     28          1           0       -5.090559    1.609225    0.988823
     29          1           0       -2.097047    1.010983   -1.316048
     30          1           0       -3.626429    0.383437   -1.955251
 ---------------------------------------------------------------------

 SCF Done:  E(RB3LYP) =  -994.356104830     A.U. after    1 cycles

 The electronic state is 1-A.
 Alpha  occ. eigenvalues --  -88.88039 -19.12128 -14.32206 -10.24715 -10.24630
 Alpha  occ. eigenvalues --  -10.23445 -10.22802 -10.22321 -10.22288 -10.22241
 Alpha  occ. eigenvalues --  -10.21406 -10.21183 -10.21031 -10.20913 -10.15143
 Alpha  occ. eigenvalues --   -7.94356  -5.90850  -5.90502  -5.89860  -1.01320
 Alpha  occ. eigenvalues --   -0.91984  -0.91243  -0.85366  -0.78183  -0.77552
 Alpha  occ. eigenvalues --   -0.75129  -0.70812  -0.67243  -0.64024  -0.61250
 Alpha  occ. eigenvalues --   -0.60681  -0.57579  -0.54038  -0.52055  -0.49935
 Alpha  occ. eigenvalues --   -0.48663  -0.48366  -0.46304  -0.46170  -0.45309
 Alpha  occ. eigenvalues --   -0.44992  -0.43750  -0.42926  -0.42089  -0.39683
 Alpha  occ. eigenvalues --   -0.38177  -0.37344  -0.36903  -0.36364  -0.34905
 Alpha  occ. eigenvalues --   -0.34580  -0.31495  -0.30944  -0.29502  -0.27491
 Alpha  occ. eigenvalues --   -0.26980  -0.23972  -0.23459  -0.20044
 Alpha virt. eigenvalues --   -0.05665  -0.01118   0.02588   0.04580   0.05801
 Alpha virt. eigenvalues --    0.06451   0.07196   0.09282   0.09988   0.11081
 Alpha virt. eigenvalues --    0.12141   0.12708   0.12935   0.13586   0.14886

 Mulliken charges:
               1
     1  C   -0.218121
     2  O   -0.230664
     3  C   -0.108004
     4  C   -0.287320
     5  C    0.285869
     6  C   -0.299068
     7  C    0.250217
     8  C   -0.385373
     9  C   -0.080446
    10  C   -0.057833
    11  C   -0.127967
    12  C    0.319387
    13  N   -0.476741
    14  C   -0.278438
    15  S   -0.153247
    16  H    0.119772
    17  H    0.096682
    18  H    0.091347
    19  H    0.066244
    20  H    0.077810
    21  H    0.076457
    22  H    0.160842
    23  H    0.140472
    24  H    0.151361
    25  H    0.135301
    26  H    0.113067
    27  H    0.099975
    28  H    0.217556
    29  H    0.143870
    30  H    0.156992
 Sum of Mulliken charges =  -0.00000

 Dipole moment (field-independent basis, Debye):
    X=             -0.4684    Y=             -1.2236    Z=              2.1761  Tot=              2.5401
 Quadrupole moment (field-independent basis, Debye-Ang):
   XX=           -112.0217   YY=            -94.1434   ZZ=            -93.2534
   XY=             -6.8411   XZ=             -9.9111   YZ=             -1.8521

  Exact polarizability: 217.233 -23.054 138.088  -1.137  -2.456 120.584
 Approx polarizability: 289.427 -47.780 238.675   6.498 -10.256 191.935

                      1                      2                      3
                      A                      A                      A
 Frequencies --     17.8974                33.6763                37.6314
 Red. masses --      4.9399                 5.0688                 4.8257
 Frc consts  --      0.0009                 0.0034                 0.0040
 IR Inten    --      0.7970                 0.6143                 0.0659

                      4                      5                      6
                      A                      A                      A
 Frequencies --     62.5683                81.4162               100.2881
 Red. masses --      4.4881                 2.3984                 3.5437
 Frc consts  --      0.0104                 0.0094                 0.0210
 IR Inten    --      3.1757                 1.5261                 1.2347

                      7                      8                      9
                      A                      A                      A
 Frequencies --    127.2234               140.6536               151.8945
 Red. masses --      4.3522                 3.5880                 3.3263
 Frc consts  --      0.0415                 0.0418                 0.0452
 IR Inten    --      0.5711                 3.2490                 0.4246

                     10                     11                     12
                      A                      A                      A
 Frequencies --    228.7046               245.0095               273.9303
 Red. masses --      1.6394                 2.0501                 3.8788
 Frc consts  --      0.0505                 0.0725                 0.1715
 IR Inten    --      0.3049                 2.7283                 3.4468

                     13                     14                     15
                      A                      A                      A
 Frequencies --    322.3412               338.2548               342.4038
 Red. masses --      2.0761                 2.6362                 3.6235
 Frc consts  --      0.1271                 0.1777                 0.2503
 IR Inten    --      6.7175                 3.5623                 1.5904

                     16                     17                     18
                      A                      A                      A
 Frequencies --    377.3257               418.2696               421.7563
 Red. masses --      4.5061                 4.5709                 4.5414
 Frc consts  --      0.3780                 0.4712                 0.4759
 IR Inten    --      1.0995                 2.2932                 5.5289

                     19                     20                     21
                      A                      A                      A
 Frequencies --    450.5978               504.0728               537.0567
 Red. masses --      3.6270                 3.0844                 4.7847
 Frc consts  --      0.4339                 0.4617                 0.8131
 IR Inten    --      6.3263                 1.6137                 1.3752

                     22                     23                     24
                      A                      A                      A
 Frequencies --    581.6251               603.7757               639.6177
 Red. masses --      3.0033                 4.8394                 2.9770
 Frc consts  --      0.5986                 1.0394                 0.7176
 IR Inten    --     11.0124                 5.9226                 2.0849

                     25                     26                     27
                      A                      A                      A
 Frequencies --    700.8670               757.4936               782.8498
 Red. masses --      4.3780                 1.7196                 1.4994
 Frc consts  --      1.2671                 0.5814                 0.5414
 IR Inten    --      3.2969                 3.0262                26.6515

                     28                     29                     30
                      A                      A                      A
 Frequencies --    788.6603               790.2282               805.1620
 Red. masses --      2.0279                 1.8136                 3.0001
 Frc consts  --      0.7431                 0.6673                 1.1459
 IR Inten    --      4.5315                 1.7897                 0.1146

                     31                     32                     33
                      A                      A                      A
 Frequencies --    865.7071               889.5395               898.5623
 Red. masses --      2.5144                 2.4511                 2.3840
 Frc consts  --      1.1103                 1.1427                 1.1341
 IR Inten    --      1.8901                14.0262                 6.0525

                     34                     35                     36
                      A                      A                      A
 Frequencies --    921.9586               955.3164               967.9161
 Red. masses --      1.9178                 1.3514                 4.2217
 Frc consts  --      0.9605                 0.7266                 2.3303
 IR Inten    --     30.0746                37.3324                49.8161

                     37                     38                     39
                      A                      A                      A
 Frequencies --    988.3771              1009.1324              1023.8485
 Red. masses --      2.6687                 1.3075                 1.8461
 Frc consts  --      1.5360                 0.7845                 1.1402
 IR Inten    --     17.2553                 3.0195                 6.2271

                     40                     41                     42
                      A                      A                      A
 Frequencies --   1031.1465              1071.4947              1115.7252
 Red. masses --      2.3065                 2.1185                 1.8182
 Frc consts  --      1.4449                 1.4330                 1.3335
 IR Inten    --      2.6279                 0.5758                71.7173

                     43                     44                     45
                      A                      A                      A
 Frequencies --   1117.4479              1123.0051              1142.7957
 Red. masses --      2.5759                 3.1390                 4.5894
 Frc consts  --      1.8951                 2.3324                 3.5314
 IR Inten    --     15.7175                34.3542               200.1390

                     46                     47                     48
                      A                      A                      A
 Frequencies --   1168.4464              1183.1612              1210.7240
 Red. masses --      1.1491                 1.2988                 1.0705
 Frc consts  --      0.9243                 1.0712                 0.9246
 IR Inten    --     14.5991                 1.9702                 7.9618

                     49                     50                     51
                      A                      A                      A
 Frequencies --   1218.4403              1222.5619              1247.3819
 Red. masses --      1.4948                 1.0661                 1.2951
 Frc consts  --      1.3075                 0.9389                 1.1873
 IR Inten    --     34.2388                 3.6317                 0.9790

                     52                     53                     54
                      A                      A                      A
 Frequencies --   1254.3499              1261.4519              1311.3120
 Red. masses --      1.2958                 1.1378                 1.4717
 Frc consts  --      1.2012                 1.0668                 1.4910
 IR Inten    --      1.8095                11.8715                 2.8898

                     55                     56                     57
                      A                      A                      A
 Frequencies --   1354.7394              1370.9238              1387.3487
 Red. masses --      1.3296                 1.4276                 1.6854
 Frc consts  --      1.4377                 1.5809                 1.9113
 IR Inten    --     60.6356                57.1904                30.3916

                     58                     59                     60
                      A                      A                      A
 Frequencies --   1417.5646              1423.9640              1447.6368
 Red. masses --      1.4292                 1.7986                 1.1110
 Frc consts  --      1.6921                 2.1487                 1.3717
 IR Inten    --     57.5611                17.9038                 5.2160

                     61                     62                     63
                      A                      A                      A
 Frequencies --   1453.5248              1477.5018              1483.8053
 Red. masses --      1.0983                 1.1641                 1.0552
 Frc consts  --      1.3671                 1.4973                 1.3688
 IR Inten    --     10.9597                 0.8971                 4.4787

                     64                     65                     66
                      A                      A                      A
 Frequencies --   1500.2282              1518.8356              1674.7741
 Red. masses --      1.0795                 1.0772                 8.7327
 Frc consts  --      1.4315                 1.4641                14.4316
 IR Inten    --      6.2785                 1.7237                26.6193

                     67                     68                     69
                      A                      A                      A
 Frequencies --   1690.3401              1710.2163              1894.2997
 Red. masses --      8.5108                 7.5701                 8.7890
 Frc consts  --     14.3275                13.0452                18.5817
 IR Inten    --     92.9944                49.6033               193.0693

                     70                     71                     72
                      A                      A                      A
 Frequencies --   2929.5763              2954.2987              2961.6122
 Red. masses --      1.0562                 1.0470                 1.0925
 Frc consts  --      5.3409                 5.3839                 5.6459
 IR Inten    --     41.4778               106.9782                68.3250

                     73                     74                     75
                      A                      A                      A
 Frequencies --   2990.9925              2997.4226              3028.7969
 Red. masses --      1.1017                 1.0699                 1.0830
 Frc consts  --      5.8071                 5.6635                 5.8534
 IR Inten    --     64.6253                10.5273                 7.6614

                     76                     77                     78
                      A                      A                      A
 Frequencies --   3063.1289              3066.0903              3102.9626
 Red. masses --      1.0629                 1.0888                 1.0944
 Frc consts  --      5.8761                 6.0309                 6.2086
 IR Inten    --      8.6831                 4.2765                37.8759

                     79                     80                     81
                      A                      A                      A
 Frequencies --   3128.7896              3138.4724              3156.0234
 Red. masses --      1.0843                 1.1003                 1.0943
 Frc consts  --      6.2538                 6.3854                 6.4219
 IR Inten    --      5.9191                 0.5641                14.9383

                     82                     83                     84
                      A                      A                      A
 Frequencies --   3165.1785              3271.4595              3414.4511
 Red. masses --      1.0874                 1.1143                 1.0739
 Frc consts  --      6.4188                 7.0262                 7.3763
 IR Inten    --     14.7067                 1.0943                 3.4049

 - Thermochemistry -
 -------------------
 Temperature   298.150 Kelvin.  Pressure   1.00000 Atm.
 Atom     1 has atomic number  6 and mass  12.00000

 Molecular mass:   221.08744 amu.
 Principal axes and moments of inertia in atomic units:
                           1         2         3
     Eigenvalues --  1395.304968737.451769043.53745
           X            0.99992  -0.01169  -0.00436
           Y            0.01136   0.99753  -0.06930
           Z            0.00516   0.06925   0.99759
 This molecule is an asymmetric top.
 Rotational symmetry number  1.
 Warning -- assumption of classical behavior for rotation
           may cause significant error
 Rotational temperatures (Kelvin)      0.06208     0.00991     0.00958
 Rotational constants (GHZ):           1.29344     0.20655     0.19956
 Zero-point vibrational energy     640229.5 (Joules/Mol)
                                  153.01852 (Kcal/Mol)
 Warning -- explicit consideration of  23 degrees of freedom as
           vibrations may cause significant error
 Vibrational temperatures:     25.75    48.45    54.14    90.02   117.14
          (Kelvin)            144.29   183.05   202.37   218.54   329.05
                              352.51   394.12   463.78   486.67   492.64
                              542.89   601.80   606.81   648.31   725.25
                              772.70   836.83   868.70   920.27  1008.39
                             1089.86  1126.35  1134.71  1136.96  1158.45
                             1245.56  1279.85  1292.83  1326.49  1374.49
                             1392.62  1422.05  1451.92  1473.09  1483.59
                             1541.64  1605.28  1607.76  1615.75  1644.23
                             1681.13  1702.31  1741.96  1753.06  1758.99
                             1794.70  1804.73  1814.95  1886.69  1949.17
                             1972.45  1996.09  2039.56  2048.77  2082.83
                             2091.30  2125.80  2134.86  2158.49  2185.27
                             2409.63  2432.02  2460.62  2725.47  4215.01
                             4250.58  4261.10  4303.37  4312.62  4357.76
                             4407.16  4411.42  4464.47  4501.63  4515.56
                             4540.81  4553.99  4706.90  4912.63

 Zero-point correction=                           0.243851 (Hartree/Particle)
 Thermal correction to Energy=                    0.259586
 Thermal correction to Enthalpy=                  0.260530
 Thermal correction to Gibbs Free Energy=         0.198017
 Sum of electronic and zero-point Energies=           -994.112254
 Sum of electronic and thermal Energies=              -994.096519
 Sum of electronic and thermal Enthalpies=            -994.095574
 Sum of electronic and thermal Free Energies=         -994.158088

                     E (Thermal)             CV                S
                      KCal/Mol        Cal/Mol-Kelvin    Cal/Mol-Kelvin
 Total                  162.893             57.561            131.572
 Electronic               0.000              0.000              0.000
 Translational            0.889              2.981             42.083
 Rotational               0.889              2.981             33.066
 Vibrational            161.115             51.599             56.422
 Vibration     1          0.593              1.986              6.855
 Vibration     2          0.594              1.983              5.600
 Vibration     3          0.594              1.982              5.380
 Vibration     4          0.597              1.972              4.374
 Vibration     5          0.600              1.962              3.856
 Vibration     6          0.604              1.949              3.449
 Vibration     7          0.611              1.926              2.988
 Vibration     8          0.615              1.913              2.795
 Vibration     9          0.619              1.901              2.648
 Vibration    10          0.651              1.797              1.889
 Vibration    11          0.660              1.771              1.766
 Vibration    12          0.676              1.721              1.571
 Vibration    13          0.707              1.631              1.298
 Vibration    14          0.719              1.599              1.220
 Vibration    15          0.722              1.591              1.201
 Vibration    16          0.748              1.518              1.050
 Vibration    17          0.781              1.431              0.898
 Vibration    18          0.784              1.423              0.886
 Vibration    19          0.809              1.360              0.794
 Vibration    20          0.859              1.241              0.648
 Vibration    21          0.892              1.168              0.572
 Vibration    22          0.938              1.071              0.482
 Vibration    23          0.962              1.024              0.443

 Optimization completed.
    -- Stationary point found.
 Normal termination of Gaussian 16 at Sun May 28 12:28:25 2023.
