 Gaussian 16, Revision A.03,
 Gaussian 16:  ES64L-G16RevA.03 25-Dec-2016

 -----------------------------
 # opt freq b3lyp/6-31g(2df,p)
 -----------------------------

 -------------------
 Title Card Required
 -------------------
 Symbolic Z-matrix:
 Charge =  0 Multiplicity = 1

 SCF Done:  E(RB3LYP) =  -728.242579513     A.U. after   14 cycles
 SCF Done:  E(RB3LYP) =  -728.252674855     A.U. after   14 cycles
 SCF Done:  E(RB3LYP) =  -728.253651480     A.U. after   13 cycles
 SCF Done:  E(RB3LYP) =  -728.262730266     A.U. after   14 cycles
 SCF Done:  E(RB3LYP) =  -728.267276646     A.U. after   13 cycles
 SCF Done:  E(RB3LYP) =  -728.269515156     A.U. after   13 cycles
 SCF Done:  E(RB3LYP) =  -728.270538798     A.U. after   13 cycles
 SCF Done:  E(RB3LYP) =  -728.272138969     A.U. after   12 cycles
 SCF Done:  E(RB3LYP) =  -728.273809318     A.U. after   12 cycles
 SCF Done:  E(RB3LYP) =  -728.270826361     A.U. after   14 cycles
 SCF Done:  E(RB3LYP) =  -728.282540044     A.U. after    9 cycles
 SCF Done:  E(RB3LYP) =  -728.282553617     A.U. after   12 cycles
 SCF Done:  E(RB3LYP) =  -728.282556428     A.U. after   10 cycles
 SCF Done:  E(RB3LYP) =  -728.282553951     A.U. after   12 cycles
 SCF Done:  E(RB3LYP) =  -728.282558555     A.U. after   10 cycles
 SCF Done:  E(RB3LYP) =  -728.282559629     A.U. after    9 cycles
 SCF Done:  E(RB3LYP) =  -728.282559928     A.U. after    8 cycles
 SCF Done:  E(RB3LYP) =  -728.282560144     A.U. after    9 cycles
 SCF Done:  E(RB3LYP) =  -728.282560168     A.U. after    7 cycles
 Optimization completed.
    -- Stationary point found.
 Normal termination of Gaussian 16 at Tue May 23 02:01:50 2023.

 ----------------------------------------------------------------------
 #N Geom=AllCheck Guess=TCheck SCRF=Check GenChk RB3LYP/6-31G(2df,p) Fr
 eq
 ----------------------------------------------------------------------

 Structure from the checkpoint file:  "COCCdNCCqCCqCrdOrCqNrCO.chk"
 -------------------
 Title Card Required
 -------------------
 Charge =  0 Multiplicity = 1

                         Standard orientation:
 ---------------------------------------------------------------------
 Center     Atomic      Atomic             Coordinates (Angstroms)
 Number     Number       Type             X           Y           Z
 ---------------------------------------------------------------------
      1          6           0        5.700847   -0.921441    0.288047
      2          8           0        4.413142   -1.205671   -0.207150
      3          6           0        3.410124   -0.421568    0.396651
      4          6           0        2.085649   -0.844078   -0.177476
      5          7           0        1.136157   -0.028282   -0.343301
      6          6           0       -0.123252   -0.520376   -0.871144
      7          6           0       -1.305893   -0.038794   -0.005026
      8          6           0       -1.590503    1.464857   -0.240610
      9          6           0       -0.394188    2.414839   -0.137985
     10          6           0        0.163429    2.671686    1.250655
     11          8           0        0.023088    2.994200   -1.113506
     12          6           0       -2.568835   -0.899595   -0.267043
     13          7           0       -2.423261   -2.321777    0.092962
     14          6           0       -3.822480   -0.400154    0.480684
     15          8           0       -4.905128   -1.274655    0.279209
     16          1           0        6.401442   -1.580115   -0.230134
     17          1           0        5.770088   -1.107345    1.371793
     18          1           0        5.988948    0.124338    0.100202
     19          1           0        3.563807    0.654057    0.225786
     20          1           0        3.402251   -0.583335    1.491560
     21          1           0        2.012752   -1.914208   -0.430107
     22          1           0       -0.124308   -1.618536   -0.952156
     23          1           0       -0.243610   -0.111248   -1.883308
     24          1           0       -1.026733   -0.187980    1.048291
     25          1           0       -2.337943    1.804486    0.485683
     26          1           0       -2.009201    1.600942   -1.243499
     27          1           0       -0.575018    3.224847    1.844382
     28          1           0        1.075686    3.264284    1.173905
     29          1           0        0.372623    1.734569    1.772252
     30          1           0       -2.800971   -0.874355   -1.340044
     31          1           0       -1.949396   -2.420802    0.986784
     32          1           0       -1.885118   -2.835980   -0.593323
     33          1           0       -4.127125    0.585073    0.118113
     34          1           0       -3.577032   -0.295294    1.555563
     35          1           0       -4.499622   -2.156222    0.281682
 ---------------------------------------------------------------------

 SCF Done:  E(RB3LYP) =  -728.282560168     A.U. after    1 cycles

 The electronic state is 1-A.
 Alpha  occ. eigenvalues --  -19.15209 -19.11653 -19.11565 -14.33479 -14.33222
 Alpha  occ. eigenvalues --  -10.26161 -10.24143 -10.23491 -10.23305 -10.22306
 Alpha  occ. eigenvalues --  -10.22187 -10.21795 -10.20636 -10.18959 -10.17952
 Alpha  occ. eigenvalues --   -1.04607  -1.02726  -1.00628  -0.93376  -0.89957
 Alpha  occ. eigenvalues --   -0.80983  -0.75840  -0.73971  -0.71065  -0.69428
 Alpha  occ. eigenvalues --   -0.65670  -0.62435  -0.58918  -0.57398  -0.53234
 Alpha  occ. eigenvalues --   -0.51886  -0.50349  -0.49329  -0.48976  -0.47282
 Alpha  occ. eigenvalues --   -0.47046  -0.45855  -0.45584  -0.44024  -0.43800
 Alpha  occ. eigenvalues --   -0.42468  -0.42181  -0.41335  -0.40421  -0.40241
 Alpha  occ. eigenvalues --   -0.38690  -0.37564  -0.36848  -0.35862  -0.34237
 Alpha  occ. eigenvalues --   -0.33654  -0.33062  -0.31900  -0.29903  -0.27164
 Alpha  occ. eigenvalues --   -0.26725  -0.25829  -0.25187  -0.23126
 Alpha virt. eigenvalues --   -0.01482   0.00013   0.05958   0.08115   0.08494
 Alpha virt. eigenvalues --    0.09559   0.10635   0.12347   0.12732   0.13318
 Alpha virt. eigenvalues --    0.13637   0.14109   0.14665   0.15262   0.15528

 Mulliken charges:
               1
     1  C   -0.224389
     2  O   -0.235522
     3  C   -0.119359
     4  C    0.003467
     5  N   -0.137245
     6  C   -0.166773
     7  C   -0.004882
     8  C   -0.311291
     9  C    0.412594
    10  C   -0.468821
    11  O   -0.314008
    12  C   -0.010480
    13  N   -0.531013
    14  C   -0.047735
    15  O   -0.428165
    16  H    0.131832
    17  H    0.105217
    18  H    0.111544
    19  H    0.118722
    20  H    0.098688
    21  H    0.092645
    22  H    0.066884
    23  H    0.128633
    24  H    0.070566
    25  H    0.116339
    26  H    0.118775
    27  H    0.129697
    28  H    0.137068
    29  H    0.132066
    30  H    0.092589
    31  H    0.230079
    32  H    0.241660
    33  H    0.108439
    34  H    0.069485
    35  H    0.282695
 Sum of Mulliken charges =  -0.00000

 Dipole moment (field-independent basis, Debye):
    X=              2.9185    Y=             -2.3734    Z=              2.5252  Tot=              4.5307
 Quadrupole moment (field-independent basis, Debye-Ang):
   XX=           -101.2187   YY=            -95.3117   ZZ=            -90.9483
   XY=             -4.9734   XZ=              5.2280   YZ=              6.2463

  Exact polarizability: 169.611  -0.561 132.892   4.196   1.274 110.330
 Approx polarizability: 202.091  -4.634 191.929   3.597  -5.065 180.254

                      1                      2                      3
                      A                      A                      A
 Frequencies --     13.5405                27.4490                38.9645
 Red. masses --      3.2427                 3.4517                 3.2372
 Frc consts  --      0.0004                 0.0015                 0.0029
 IR Inten    --      0.7646                 0.9088                 0.3323

                      4                      5                      6
                      A                      A                      A
 Frequencies --     54.7468                68.2144                77.3388
 Red. masses --      2.8927                 2.7624                 3.8507
 Frc consts  --      0.0051                 0.0076                 0.0136
 IR Inten    --      2.7652                 2.7190                 1.2649

                      7                      8                      9
                      A                      A                      A
 Frequencies --     85.5034                94.0153               118.3502
 Red. masses --      2.0934                 1.7189                 3.2770
 Frc consts  --      0.0090                 0.0090                 0.0270
 IR Inten    --      5.0487                 2.4692                 1.6761

                     10                     11                     12
                      A                      A                      A
 Frequencies --    135.7512               144.3204               174.7171
 Red. masses --      3.1588                 3.3001                 3.4584
 Frc consts  --      0.0343                 0.0405                 0.0622
 IR Inten    --      9.9785                 0.4560                 0.9430

                     13                     14                     15
                      A                      A                      A
 Frequencies --    225.4086               229.4749               257.1258
 Red. masses --      2.9005                 1.3073                 1.9993
 Frc consts  --      0.0868                 0.0406                 0.0779
 IR Inten    --      7.2316                 3.1425                 7.7103

                     16                     17                     18
                      A                      A                      A
 Frequencies --    277.1119               283.0979               307.4385
 Red. masses --      1.7236                 2.8567                 3.6824
 Frc consts  --      0.0780                 0.1349                 0.2051
 IR Inten    --      3.5929                 4.0551                 7.8590

                     19                     20                     21
                      A                      A                      A
 Frequencies --    343.6807               374.8189               395.1907
 Red. masses --      2.5106                 2.8361                 2.4595
 Frc consts  --      0.1747                 0.2348                 0.2263
 IR Inten    --      2.8304                 1.4866                 1.5874

                     22                     23                     24
                      A                      A                      A
 Frequencies --    399.3399               455.0693               497.8680
 Red. masses --      2.5456                 4.0626                 2.6830
 Frc consts  --      0.2392                 0.4957                 0.3918
 IR Inten    --      4.3401                 0.1742                 2.7797

                     25                     26                     27
                      A                      A                      A
 Frequencies --    546.5190               567.3032               572.5450
 Red. masses --      3.2949                 2.6992                 2.4366
 Frc consts  --      0.5798                 0.5118                 0.4706
 IR Inten    --     15.1812                 4.3606                 4.7095

                     28                     29                     30
                      A                      A                      A
 Frequencies --    602.1573               629.2174               794.6613
 Red. masses --      1.1550                 2.8760                 3.3418
 Frc consts  --      0.2468                 0.6709                 1.2433
 IR Inten    --     97.3821                12.1120                 1.5135

                     31                     32                     33
                      A                      A                      A
 Frequencies --    838.8023               846.0599               863.0032
 Red. masses --      1.6030                 1.5761                 1.6097
 Frc consts  --      0.6645                 0.6647                 0.7064
 IR Inten    --    103.3757                98.7436                 1.9181

                     34                     35                     36
                      A                      A                      A
 Frequencies --    878.3161               906.8778               963.7800
 Red. masses --      2.1433                 1.8542                 1.6828
 Frc consts  --      0.9742                 0.8985                 0.9209
 IR Inten    --      6.3829                10.0544                26.5884

                     37                     38                     39
                      A                      A                      A
 Frequencies --    974.4216               989.9321              1022.4889
 Red. masses --      2.1563                 2.3460                 1.7281
 Frc consts  --      1.2063                 1.3545                 1.0645
 IR Inten    --      6.6103                11.7239                16.8071

                     40                     41                     42
                      A                      A                      A
 Frequencies --   1047.1146              1060.0845              1067.3726
 Red. masses --      2.4723                 2.8854                 2.5935
 Frc consts  --      1.5971                 1.9105                 1.7409
 IR Inten    --      4.6641                11.4928                45.4725

                     43                     44                     45
                      A                      A                      A
 Frequencies --   1079.5399              1107.1962              1111.7411
 Red. masses --      2.8801                 3.1052                 2.8572
 Frc consts  --      1.9776                 2.2428                 2.0806
 IR Inten    --     11.2263                61.3684                26.0265

                     46                     47                     48
                      A                      A                      A
 Frequencies --   1130.6602              1140.3575              1167.8049
 Red. masses --      2.5640                 2.2277                 3.6102
 Frc consts  --      1.9312                 1.7068                 2.9009
 IR Inten    --     36.0997                 4.8318               162.2248

                     49                     50                     51
                      A                      A                      A
 Frequencies --   1172.4259              1185.0642              1194.3571
 Red. masses --      1.6469                 1.2937                 1.6597
 Frc consts  --      1.3338                 1.0705                 1.3950
 IR Inten    --      8.8546                 2.7061                 9.7682

                     52                     53                     54
                      A                      A                      A
 Frequencies --   1226.6863              1228.6788              1239.8650
 Red. masses --      1.4713                 1.2536                 1.5553
 Frc consts  --      1.3044                 1.1150                 1.4087
 IR Inten    --     17.8966                52.6623                60.5570

                     55                     56                     57
                      A                      A                      A
 Frequencies --   1246.0848              1285.5774              1299.2634
 Red. masses --      1.3221                 1.2337                 1.1959
 Frc consts  --      1.2095                 1.2013                 1.1894
 IR Inten    --     11.3671                 1.9847                17.7388

                     58                     59                     60
                      A                      A                      A
 Frequencies --   1313.2807              1340.3512              1351.8832
 Red. masses --      1.4337                 1.2757                 1.3162
 Frc consts  --      1.4569                 1.3503                 1.4172
 IR Inten    --     22.0784                 7.7903                16.0440

                     61                     62                     63
                      A                      A                      A
 Frequencies --   1361.4297              1370.5665              1379.7794
 Red. masses --      1.3178                 1.2577                 1.3299
 Frc consts  --      1.4391                 1.3919                 1.4918
 IR Inten    --      3.2101                14.0055                34.9384

                     64                     65                     66
                      A                      A                      A
 Frequencies --   1391.5930              1407.6554              1417.2838
 Red. masses --      1.3914                 1.2700                 1.5116
 Frc consts  --      1.5875                 1.4827                 1.7889
 IR Inten    --      4.5028                 5.9177                42.1207

                     67                     68                     69
                      A                      A                      A
 Frequencies --   1457.0771              1461.4252              1471.7622
 Red. masses --      1.0797                 1.1921                 1.1048
 Frc consts  --      1.3505                 1.5001                 1.4099
 IR Inten    --      4.3027                83.5120                27.7166

                     70                     71                     72
                      A                      A                      A
 Frequencies --   1477.4834              1480.4907              1485.3570
 Red. masses --      1.1369                 1.0680                 1.0773
 Frc consts  --      1.4622                 1.3792                 1.4004
 IR Inten    --      3.7102                20.9293                 4.1174

                     73                     74                     75
                      A                      A                      A
 Frequencies --   1485.6724              1495.8914              1514.2513
 Red. masses --      1.0567                 1.0706                 1.0830
 Frc consts  --      1.3742                 1.4114                 1.4632
 IR Inten    --      5.5767                10.9399                 1.1210

                     76                     77                     78
                      A                      A                      A
 Frequencies --   1517.8750              1650.6282              1771.5665
 Red. masses --      1.0862                 1.0943                 9.2569
 Frc consts  --      1.4745                 1.7566                17.1170
 IR Inten    --      1.9369                20.3673                72.3231

                     79                     80                     81
                      A                      A                      A
 Frequencies --   1811.7923              2914.1006              2925.6905
 Red. masses --     10.5233                 1.0728                 1.0680
 Frc consts  --     20.3525                 5.3678                 5.3860
 IR Inten    --    154.1194                61.6483                38.4531

                     82                     83                     84
                      A                      A                      A
 Frequencies --   2971.8867              2972.2575              2990.7325
 Red. masses --      1.0547                 1.0468                 1.0841
 Frc consts  --      5.4886                 5.4489                 5.7134
 IR Inten    --     86.6030                24.6578                44.2556

                     85                     86                     87
                      A                      A                      A
 Frequencies --   2996.9817              3014.6529              3019.3679
 Red. masses --      1.0811                 1.0895                 1.1020
 Frc consts  --      5.7210                 5.8340                 5.9191
 IR Inten    --      8.1482                64.1351                27.9149

                     88                     89                     90
                      A                      A                      A
 Frequencies --   3029.2944              3031.5991              3037.2505
 Red. masses --      1.0837                 1.0550                 1.0467
 Frc consts  --      5.8590                 5.7128                 5.6888
 IR Inten    --     18.1215                 9.2515                10.1097

                     91                     92                     93
                      A                      A                      A
 Frequencies --   3040.2400              3085.6025              3091.7463
 Red. masses --      1.0954                 1.0935                 1.0969
 Frc consts  --      5.9656                 6.1343                 6.1777
 IR Inten    --     25.3755                34.8867                18.5252

                     94                     95                     96
                      A                      A                      A
 Frequencies --   3109.4796              3118.9480              3154.2276
 Red. masses --      1.0916                 1.0962                 1.1031
 Frc consts  --      6.2185                 6.2830                 6.4663
 IR Inten    --     15.6271                28.6183                11.4817

                     97                     98                     99
                      A                      A                      A
 Frequencies --   3497.6750              3597.4867              3683.6536
 Red. masses --      1.0515                 1.0905                 1.0642
 Frc consts  --      7.5793                 8.3151                 8.5082
 IR Inten    --      0.5888                 2.8303                71.3105

 - Thermochemistry -
 -------------------
 Temperature   298.150 Kelvin.  Pressure   1.00000 Atm.
 Atom     1 has atomic number  6 and mass  12.00000

 Molecular mass:   216.14739 amu.
 Principal axes and moments of inertia in atomic units:
                           1         2         3
     Eigenvalues --  2252.291557099.445288750.14431
           X            0.99998  -0.00249   0.00513
           Y            0.00236   0.99969   0.02494
           Z           -0.00519  -0.02492   0.99968
 This molecule is an asymmetric top.
 Rotational symmetry number  1.
 Warning -- assumption of classical behavior for rotation
           may cause significant error
 Rotational temperatures (Kelvin)      0.03846     0.01220     0.00990
 Rotational constants (GHZ):           0.80129     0.25421     0.20625
 Zero-point vibrational energy     794095.9 (Joules/Mol)
                                  189.79347 (Kcal/Mol)
 Warning -- explicit consideration of  28 degrees of freedom as
           vibrations may cause significant error
 Vibrational temperatures:     19.48    39.49    56.06    78.77    98.15
          (Kelvin)            111.27   123.02   135.27   170.28   195.32
                              207.64   251.38   324.31   330.16   369.95
                              398.70   407.31   442.34   494.48   539.28
                              568.59   574.56   654.74   716.32   786.32
                              816.22   823.76   866.37   905.30  1143.34
                             1206.85  1217.29  1241.67  1263.70  1304.79
                             1386.66  1401.98  1424.29  1471.13  1506.56
                             1525.23  1535.71  1553.22  1593.01  1599.55
                             1626.77  1640.72  1680.21  1686.86  1705.04
                             1718.41  1764.93  1767.79  1783.89  1792.84
                             1849.66  1869.35  1889.52  1928.47  1945.06
                             1958.79  1971.94  1985.19  2002.19  2025.30
                             2039.16  2096.41  2102.66  2117.54  2125.77
                             2130.10  2137.10  2137.55  2152.25  2178.67
                             2183.88  2374.89  2548.89  2606.77  4192.74
                             4209.42  4275.88  4276.42  4303.00  4311.99
                             4337.41  4344.20  4358.48  4361.79  4369.93
                             4374.23  4439.49  4448.33  4473.85  4487.47
                             4538.23  5032.37  5175.98  5299.96

 Zero-point correction=                           0.302455 (Hartree/Particle)
 Thermal correction to Energy=                    0.320992
 Thermal correction to Enthalpy=                  0.321936
 Thermal correction to Gibbs Free Energy=         0.252614
 Sum of electronic and zero-point Energies=           -727.980105
 Sum of electronic and thermal Energies=              -727.961568
 Sum of electronic and thermal Enthalpies=            -727.960624
 Sum of electronic and thermal Free Energies=         -728.029946

                     E (Thermal)             CV                S
                      KCal/Mol        Cal/Mol-Kelvin    Cal/Mol-Kelvin
 Total                  201.425             64.927            145.901
 Electronic               0.000              0.000              0.000
 Translational            0.889              2.981             42.016
 Rotational               0.889              2.981             33.303
 Vibrational            199.648             58.966             70.583
 Vibration     1          0.593              1.986              7.409
 Vibration     2          0.593              1.984              6.006
 Vibration     3          0.594              1.981              5.311
 Vibration     4          0.596              1.976              4.638
 Vibration     5          0.598              1.969              4.204
 Vibration     6          0.599              1.964              3.957
 Vibration     7          0.601              1.959              3.760
 Vibration     8          0.603              1.953              3.575
 Vibration     9          0.609              1.934              3.127
 Vibration    10          0.614              1.918              2.863
 Vibration    11          0.616              1.909              2.746
 Vibration    12          0.627              1.874              2.384
 Vibration    13          0.650              1.802              1.915
 Vibration    14          0.652              1.796              1.883
 Vibration    15          0.667              1.751              1.681
 Vibration    16          0.678              1.716              1.551
 Vibration    17          0.682              1.705              1.515
 Vibration    18          0.697              1.660              1.376
 Vibration    19          0.722              1.588              1.195
 Vibration    20          0.746              1.524              1.060
 Vibration    21          0.762              1.480              0.980
 Vibration    22          0.765              1.472              0.965
 Vibration    23          0.813              1.350              0.781
 Vibration    24          0.853              1.255              0.663
 Vibration    25          0.902              1.147              0.551
 Vibration    26          0.923              1.102              0.509
 Vibration    27          0.929              1.091              0.499
 Vibration    28          0.960              1.027              0.446

 Optimization completed.
    -- Stationary point found.
 Normal termination of Gaussian 16 at Tue May 23 04:21:51 2023.
