 Gaussian 16, Revision A.03,
 Gaussian 16:  ES64L-G16RevA.03 25-Dec-2016

 -----------------------------
 # opt freq b3lyp/6-31g(2df,p)
 -----------------------------

 -------------------
 Title Card Required
 -------------------
 Symbolic Z-matrix:
 Charge =  0 Multiplicity = 1

 SCF Done:  E(RB3LYP) =  -713.390320282     A.U. after   12 cycles
 SCF Done:  E(RB3LYP) =  -713.402113140     A.U. after   12 cycles
 SCF Done:  E(RB3LYP) =  -713.418137501     A.U. after   11 cycles
 SCF Done:  E(RB3LYP) =  -713.425235069     A.U. after   11 cycles
 SCF Done:  E(RB3LYP) =  -713.431899476     A.U. after   11 cycles
 SCF Done:  E(RB3LYP) =  -713.438301949     A.U. after   11 cycles
 SCF Done:  E(RB3LYP) =  -713.441711086     A.U. after   11 cycles
 SCF Done:  E(RB3LYP) =  -713.443850177     A.U. after   11 cycles
 SCF Done:  E(RB3LYP) =  -713.444929517     A.U. after   10 cycles
 SCF Done:  E(RB3LYP) =  -713.445430782     A.U. after   10 cycles
 SCF Done:  E(RB3LYP) =  -713.445911879     A.U. after   10 cycles
 SCF Done:  E(RB3LYP) =  -713.446058572     A.U. after   10 cycles
 SCF Done:  E(RB3LYP) =  -713.446112722     A.U. after    9 cycles
 SCF Done:  E(RB3LYP) =  -713.446125311     A.U. after    9 cycles
 SCF Done:  E(RB3LYP) =  -713.446133622     A.U. after    9 cycles
 SCF Done:  E(RB3LYP) =  -713.446139074     A.U. after    9 cycles
 SCF Done:  E(RB3LYP) =  -713.446141367     A.U. after    8 cycles
 SCF Done:  E(RB3LYP) =  -713.446143224     A.U. after    8 cycles
 SCF Done:  E(RB3LYP) =  -713.446143560     A.U. after    7 cycles
 Optimization completed.
    -- Stationary point found.
 Normal termination of Gaussian 16 at Wed May 24 06:03:05 2023.

 ----------------------------------------------------------------------
 #N Geom=AllCheck Guess=TCheck SCRF=Check GenChk RB3LYP/6-31G(2df,p) Fr
 eq
 ----------------------------------------------------------------------

 Structure from the checkpoint file:  "COCC1CCCCCCN1CCqOrO.chk"
 -------------------
 Title Card Required
 -------------------
 Charge =  0 Multiplicity = 1

                         Standard orientation:
 ---------------------------------------------------------------------
 Center     Atomic      Atomic             Coordinates (Angstroms)
 Number     Number       Type             X           Y           Z
 ---------------------------------------------------------------------
      1          6           0       -1.310838    3.949804   -0.488408
      2          8           0       -0.360743    2.915767   -0.550075
      3          6           0       -0.807013    1.723686    0.070113
      4          6           0        0.328253    0.685187   -0.021310
      5          6           0        1.463786    1.199735    0.887916
      6          6           0        2.917324    0.662574    0.770716
      7          6           0        3.339244   -0.053660   -0.528875
      8          6           0        3.159571   -1.579630   -0.506779
      9          6           0        1.721067   -2.117155   -0.521651
     10          6           0        0.806977   -1.669833    0.656682
     11          7           0       -0.186789   -0.638567    0.356034
     12          6           0       -1.252785   -1.167031   -0.496475
     13          6           0       -2.526878   -1.509962    0.285338
     14          8           0       -3.151606   -0.321755    0.656954
     15          8           0       -3.447433   -2.230862   -0.522533
     16          1           0       -0.884080    4.819728   -0.994640
     17          1           0       -1.550524    4.225744    0.551105
     18          1           0       -2.251361    3.672367   -0.990632
     19          1           0       -1.726315    1.373317   -0.411274
     20          1           0       -1.055474    1.899814    1.129651
     21          1           0        0.676290    0.704016   -1.070491
     22          1           0        1.123715    1.098093    1.926173
     23          1           0        1.494176    2.272751    0.683358
     24          1           0        3.139382   -0.007157    1.610034
     25          1           0        3.579133    1.523417    0.916544
     26          1           0        4.405146    0.143649   -0.693195
     27          1           0        2.823367    0.377588   -1.395781
     28          1           0        3.674355   -1.972068    0.382075
     29          1           0        3.687656   -2.005883   -1.369345
     30          1           0        1.779205   -3.212590   -0.529559
     31          1           0        1.242424   -1.839929   -1.469256
     32          1           0        1.415147   -1.346712    1.504937
     33          1           0        0.246974   -2.538996    1.019954
     34          1           0       -0.933679   -2.085460   -1.009004
     35          1           0       -1.532806   -0.466761   -1.288255
     36          1           0       -2.263092   -2.111064    1.175339
     37          1           0       -3.982789   -0.555015    1.084683
     38          1           0       -3.153324   -3.146372   -0.573020
 ---------------------------------------------------------------------

 SCF Done:  E(RB3LYP) =  -713.446143560     A.U. after    1 cycles

 The electronic state is 1-A.
 Alpha  occ. eigenvalues --  -19.14059 -19.13978 -19.12946 -14.31057 -10.27336
 Alpha  occ. eigenvalues --  -10.21525 -10.20677 -10.20103 -10.19890 -10.19810
 Alpha  occ. eigenvalues --  -10.17397 -10.17331 -10.17146 -10.17092 -10.16562
 Alpha  occ. eigenvalues --   -1.05895  -1.02221  -0.99047  -0.91196  -0.79576
 Alpha  occ. eigenvalues --   -0.77788  -0.73628  -0.71616  -0.68373  -0.66821
 Alpha  occ. eigenvalues --   -0.61896  -0.61378  -0.58002  -0.57223  -0.53727
 Alpha  occ. eigenvalues --   -0.52518  -0.52385  -0.48907  -0.47696  -0.46441
 Alpha  occ. eigenvalues --   -0.44607  -0.44275  -0.43811  -0.43454  -0.42681
 Alpha  occ. eigenvalues --   -0.41558  -0.40288  -0.39371  -0.37561  -0.37098
 Alpha  occ. eigenvalues --   -0.36311  -0.35928  -0.34807  -0.34171  -0.33756
 Alpha  occ. eigenvalues --   -0.33041  -0.32799  -0.31062  -0.30769  -0.30175
 Alpha  occ. eigenvalues --   -0.29928  -0.29201  -0.26577  -0.24268  -0.19802
 Alpha virt. eigenvalues --    0.06552   0.08478   0.09471   0.09824   0.10112
 Alpha virt. eigenvalues --    0.11383   0.12459   0.12611   0.13582   0.14306
 Alpha virt. eigenvalues --    0.14580   0.15602   0.15993   0.16611   0.17095

 Mulliken charges:
               1
     1  C   -0.225164
     2  O   -0.231860
     3  C   -0.076865
     4  C    0.016990
     5  C   -0.215385
     6  C   -0.216352
     7  C   -0.181032
     8  C   -0.190883
     9  C   -0.186636
    10  C   -0.177602
    11  N   -0.068342
    12  C   -0.198306
    13  C    0.202977
    14  O   -0.386758
    15  O   -0.423991
    16  H    0.120914
    17  H    0.101518
    18  H    0.104470
    19  H    0.106384
    20  H    0.087053
    21  H    0.063727
    22  H    0.095741
    23  H    0.123312
    24  H    0.093143
    25  H    0.091467
    26  H    0.089061
    27  H    0.099429
    28  H    0.090512
    29  H    0.088195
    30  H    0.086506
    31  H    0.100630
    32  H    0.104341
    33  H    0.087054
    34  H    0.080375
    35  H    0.119358
    36  H    0.053765
    37  H    0.288103
    38  H    0.284155
 Sum of Mulliken charges =  -0.00000

 Dipole moment (field-independent basis, Debye):
    X=             -0.2133    Y=             -1.8653    Z=              0.7868  Tot=              2.0357
 Quadrupole moment (field-independent basis, Debye-Ang):
   XX=            -92.5942   YY=            -84.1882   ZZ=            -93.7732
   XY=              0.4201   XZ=             -3.5905   YZ=             -0.2003

  Exact polarizability: 152.797  -2.929 149.721  -0.114   2.115 112.409
 Approx polarizability: 193.650  -0.781 197.790   1.433  -0.191 181.879

                      1                      2                      3
                      A                      A                      A
 Frequencies --     38.8842                54.7234                64.2170
 Red. masses --      3.3819                 4.8592                 3.6639
 Frc consts  --      0.0030                 0.0086                 0.0089
 IR Inten    --      0.4249                 2.3443                 3.0872

                      4                      5                      6
                      A                      A                      A
 Frequencies --     77.1378                85.8644                93.2928
 Red. masses --      3.2476                 3.0358                 2.2746
 Frc consts  --      0.0114                 0.0132                 0.0117
 IR Inten    --      0.5958                 0.3089                 1.1179

                      7                      8                      9
                      A                      A                      A
 Frequencies --    135.9752               150.9955               201.9571
 Red. masses --      2.3076                 2.3441                 2.7418
 Frc consts  --      0.0251                 0.0315                 0.0659
 IR Inten    --      1.9152                 0.4626                 1.0306

                     10                     11                     12
                      A                      A                      A
 Frequencies --    204.6595               215.5694               232.9978
 Red. masses --      1.3943                 1.9453                 1.4020
 Frc consts  --      0.0344                 0.0533                 0.0448
 IR Inten    --     55.4628                25.6655                 1.8785

                     13                     14                     15
                      A                      A                      A
 Frequencies --    251.9711               258.6709               304.4870
 Red. masses --      3.1285                 2.8114                 1.2914
 Frc consts  --      0.1170                 0.1108                 0.0705
 IR Inten    --      3.5120                 1.3794               103.1821

                     16                     17                     18
                      A                      A                      A
 Frequencies --    311.1040               332.7958               352.7089
 Red. masses --      2.0313                 3.5224                 2.5770
 Frc consts  --      0.1158                 0.2298                 0.1889
 IR Inten    --      6.9138                 3.4699                 6.9842

                     19                     20                     21
                      A                      A                      A
 Frequencies --    366.2557               399.5213               458.0010
 Red. masses --      2.8596                 2.9344                 2.5454
 Frc consts  --      0.2260                 0.2760                 0.3146
 IR Inten    --      4.7430                 1.8713                 6.4552

                     22                     23                     24
                      A                      A                      A
 Frequencies --    475.6956               483.2843               501.2260
 Red. masses --      1.9831                 1.8596                 2.6537
 Frc consts  --      0.2644                 0.2559                 0.3928
 IR Inten    --      7.3819                 1.9882                 4.5792

                     25                     26                     27
                      A                      A                      A
 Frequencies --    551.3493               576.3327               617.3794
 Red. masses --      2.2907                 3.9899                 3.2603
 Frc consts  --      0.4103                 0.7808                 0.7322
 IR Inten    --      8.1384                 7.9219                 2.2433

                     28                     29                     30
                      A                      A                      A
 Frequencies --    711.1454               783.7666               799.1573
 Red. masses --      2.0007                 2.2951                 1.9894
 Frc consts  --      0.5961                 0.8306                 0.7486
 IR Inten    --      0.6740                 3.8718                 2.4005

                     31                     32                     33
                      A                      A                      A
 Frequencies --    829.6060               875.3434               895.2945
 Red. masses --      1.8387                 1.8019                 2.3624
 Frc consts  --      0.7456                 0.8135                 1.1157
 IR Inten    --      1.5555                 1.8823                 5.2806

                     34                     35                     36
                      A                      A                      A
 Frequencies --    907.0037               921.4536               963.7957
 Red. masses --      1.9375                 2.8191                 1.8827
 Frc consts  --      0.9391                 1.4103                 1.0304
 IR Inten    --      8.6828                15.3410                 3.1450

                     37                     38                     39
                      A                      A                      A
 Frequencies --    980.4578               993.4341              1020.5636
 Red. masses --      2.5237                 3.2397                 2.0925
 Frc consts  --      1.4294                 1.8838                 1.2841
 IR Inten    --      9.4045                49.7476                 0.7869

                     40                     41                     42
                      A                      A                      A
 Frequencies --   1025.7977              1041.6753              1068.1301
 Red. masses --      2.3539                 3.5636                 1.9767
 Frc consts  --      1.4593                 2.2783                 1.3287
 IR Inten    --      9.9486                71.1082                 0.5651

                     43                     44                     45
                      A                      A                      A
 Frequencies --   1076.9507              1095.9106              1104.2124
 Red. masses --      2.9040                 2.5935                 2.5383
 Frc consts  --      1.9844                 1.8352                 1.8235
 IR Inten    --     10.0304                60.8006               108.6206

                     46                     47                     48
                      A                      A                      A
 Frequencies --   1117.6482              1124.8672              1138.6576
 Red. masses --      2.2587                 2.7683                 1.7984
 Frc consts  --      1.6623                 2.0638                 1.3738
 IR Inten    --     15.3097                 0.1919                21.5284

                     49                     50                     51
                      A                      A                      A
 Frequencies --   1162.5611              1173.9611              1184.3278
 Red. masses --      5.4872                 1.4844                 1.4914
 Frc consts  --      4.3695                 1.2053                 1.2325
 IR Inten    --    201.8204                30.8950                 9.3577

                     52                     53                     54
                      A                      A                      A
 Frequencies --   1190.1606              1227.2748              1237.8086
 Red. masses --      1.4869                 1.4851                 1.2789
 Frc consts  --      1.2409                 1.3179                 1.1545
 IR Inten    --      9.0188                36.6001                 3.6422

                     55                     56                     57
                      A                      A                      A
 Frequencies --   1244.1314              1270.1040              1276.8973
 Red. masses --      1.2177                 1.3580                 1.2007
 Frc consts  --      1.1105                 1.2907                 1.1535
 IR Inten    --      3.5072                41.2514                37.2338

                     58                     59                     60
                      A                      A                      A
 Frequencies --   1283.7268              1300.1408              1304.2516
 Red. masses --      1.3047                 1.2292                 1.1703
 Frc consts  --      1.2668                 1.2242                 1.1729
 IR Inten    --      6.7012                 3.7640                 3.4951

                     61                     62                     63
                      A                      A                      A
 Frequencies --   1316.3162              1334.7902              1349.7409
 Red. masses --      1.2067                 1.2408                 1.2238
 Frc consts  --      1.2319                 1.3025                 1.3136
 IR Inten    --     29.6122                 5.2622                 4.6955

                     64                     65                     66
                      A                      A                      A
 Frequencies --   1363.3882              1374.7212              1382.5176
 Red. masses --      1.2920                 1.3948                 1.3644
 Frc consts  --      1.4150                 1.5531                 1.5365
 IR Inten    --     14.3883                18.1164                 5.6007

                     67                     68                     69
                      A                      A                      A
 Frequencies --   1384.2116              1385.2815              1389.5916
 Red. masses --      1.2481                 1.3685                 1.3683
 Frc consts  --      1.4090                 1.5473                 1.5567
 IR Inten    --     26.3514                 4.4323                11.7101

                     70                     71                     72
                      A                      A                      A
 Frequencies --   1400.2365              1411.0416              1423.5979
 Red. masses --      1.3312                 1.4121                 1.3543
 Frc consts  --      1.5377                 1.6565                 1.6171
 IR Inten    --      1.8272                 3.5050                34.5021

                     73                     74                     75
                      A                      A                      A
 Frequencies --   1435.1740              1464.4945              1477.5137
 Red. masses --      1.3329                 1.5055                 1.1246
 Frc consts  --      1.6176                 1.9024                 1.4465
 IR Inten    --      4.6776                26.9481                 5.9292

                     76                     77                     78
                      A                      A                      A
 Frequencies --   1479.2368              1483.7433              1484.5713
 Red. masses --      1.0855                 1.0833                 1.0481
 Frc consts  --      1.3995                 1.4052                 1.3609
 IR Inten    --      3.4298                 1.8679                 4.2629

                     79                     80                     81
                      A                      A                      A
 Frequencies --   1485.5709              1489.0776              1494.4643
 Red. masses --      1.1331                 1.0864                 1.0917
 Frc consts  --      1.4734                 1.4193                 1.4365
 IR Inten    --      1.4457                 3.3473                 5.7773

                     82                     83                     84
                      A                      A                      A
 Frequencies --   1500.0040              1507.9037              1518.1203
 Red. masses --      1.0859                 1.0777                 1.0815
 Frc consts  --      1.4395                 1.4438                 1.4686
 IR Inten    --      9.7161                 9.0687                 6.0052

                     85                     86                     87
                      A                      A                      A
 Frequencies --   1524.6500              2924.2552              2924.7625
 Red. masses --      1.0920                 1.0824                 1.0790
 Frc consts  --      1.4956                 5.4535                 5.4383
 IR Inten    --      6.5099                63.9226                44.8985

                     88                     89                     90
                      A                      A                      A
 Frequencies --   2964.7152              2978.4618              2999.8917
 Red. masses --      1.0409                 1.0655                 1.0681
 Frc consts  --      5.3903                 5.5690                 5.6634
 IR Inten    --     60.1944                55.3086                33.2569

                     91                     92                     93
                      A                      A                      A
 Frequencies --   3000.1624              3009.5058              3015.6996
 Red. masses --      1.0645                 1.1027                 1.0661
 Frc consts  --      5.6454                 5.8842                 5.7124
 IR Inten    --     20.2451                59.2742                14.5902

                     94                     95                     96
                      A                      A                      A
 Frequencies --   3018.8957              3022.2608              3034.6842
 Red. masses --      1.0629                 1.0664                 1.0702
 Frc consts  --      5.7071                 5.7390                 5.8068
 IR Inten    --      8.2330                16.8147                21.8590

                     97                     98                     99
                      A                      A                      A
 Frequencies --   3035.5382              3043.8846              3052.1554
 Red. masses --      1.0743                 1.0872                 1.0960
 Frc consts  --      5.8325                 5.9347                 6.0158
 IR Inten    --     59.9618                56.1704                21.5660

                    100                    101                    102
                      A                      A                      A
 Frequencies --   3056.6244              3062.4512              3063.0018
 Red. masses --      1.0995                 1.0917                 1.0998
 Frc consts  --      6.0525                 6.0325                 6.0796
 IR Inten    --     42.2332                21.5881                93.7277

                    103                    104                    105
                      A                      A                      A
 Frequencies --   3091.9152              3094.0779              3099.3085
 Red. masses --      1.0917                 1.0933                 1.0951
 Frc consts  --      6.1488                 6.1670                 6.1978
 IR Inten    --     32.8656                31.3732                20.0691

                    106                    107                    108
                      A                      A                      A
 Frequencies --   3106.3509              3811.0425              3819.5249
 Red. masses --      1.0959                 1.0656                 1.0656
 Frc consts  --      6.2307                 9.1188                 9.1593
 IR Inten    --     34.7544                31.7214                20.2592

 - Thermochemistry -
 -------------------
 Temperature   298.150 Kelvin.  Pressure   1.00000 Atm.
 Atom     1 has atomic number  6 and mass  12.00000

 Molecular mass:   217.16779 amu.
 Principal axes and moments of inertia in atomic units:
                           1         2         3
     Eigenvalues --  2992.788014007.195376395.33387
           X            0.99828  -0.05860  -0.00080
           Y            0.05860   0.99828   0.00351
           Z            0.00059  -0.00355   0.99999
 This molecule is an asymmetric top.
 Rotational symmetry number  1.
 Warning -- assumption of classical behavior for rotation
           may cause significant error
 Rotational temperatures (Kelvin)      0.02894     0.02161     0.01354
 Rotational constants (GHZ):           0.60303     0.45038     0.28220
 Zero-point vibrational energy     898493.6 (Joules/Mol)
                                  214.74513 (Kcal/Mol)
 Warning -- explicit consideration of  27 degrees of freedom as
           vibrations may cause significant error
 Vibrational temperatures:     55.95    78.73    92.39   110.98   123.54
          (Kelvin)            134.23   195.64   217.25   290.57   294.46
                              310.16   335.23   362.53   372.17   438.09
                              447.61   478.82   507.47   526.96   574.82
                              658.96   684.42   695.34   721.15   793.27
                              829.21   888.27  1023.18  1127.67  1149.81
                             1193.62  1259.42  1288.13  1304.98  1325.77
                             1386.69  1410.66  1429.33  1468.36  1475.89
                             1498.74  1536.80  1549.49  1576.77  1588.72
                             1608.05  1618.43  1638.27  1672.67  1689.07
                             1703.98  1712.38  1765.77  1780.93  1790.03
                             1827.40  1837.17  1847.00  1870.61  1876.53
                             1893.89  1920.47  1941.98  1961.61  1977.92
                             1989.13  1991.57  1993.11  1999.31  2014.63
                             2030.17  2048.24  2064.90  2107.08  2125.81
                             2128.29  2134.78  2135.97  2137.41  2142.45
                             2150.20  2158.17  2169.54  2184.24  2193.63
                             4207.35  4208.08  4265.56  4285.34  4316.18
                             4316.56  4330.01  4338.92  4343.52  4348.36
                             4366.23  4367.46  4379.47  4391.37  4397.80
                             4406.18  4406.98  4448.58  4451.69  4459.21
                             4469.35  5483.24  5495.44

 Zero-point correction=                           0.342218 (Hartree/Particle)
 Thermal correction to Energy=                    0.359232
 Thermal correction to Enthalpy=                  0.360176
 Thermal correction to Gibbs Free Energy=         0.297419
 Sum of electronic and zero-point Energies=           -713.103925
 Sum of electronic and thermal Energies=              -713.086912
 Sum of electronic and thermal Enthalpies=            -713.085968
 Sum of electronic and thermal Free Energies=         -713.148724

                     E (Thermal)             CV                S
                      KCal/Mol        Cal/Mol-Kelvin    Cal/Mol-Kelvin
 Total                  225.421             63.810            132.083
 Electronic               0.000              0.000              0.000
 Translational            0.889              2.981             42.030
 Rotational               0.889              2.981             32.706
 Vibrational            223.644             57.849             57.347
 Vibration     1          0.594              1.981              5.315
 Vibration     2          0.596              1.976              4.639
 Vibration     3          0.597              1.971              4.323
 Vibration     4          0.599              1.964              3.962
 Vibration     5          0.601              1.959              3.752
 Vibration     6          0.602              1.954              3.590
 Vibration     7          0.614              1.917              2.860
 Vibration     8          0.618              1.902              2.660
 Vibration     9          0.639              1.837              2.115
 Vibration    10          0.640              1.833              2.091
 Vibration    11          0.645              1.817              1.996
 Vibration    12          0.654              1.790              1.856
 Vibration    13          0.664              1.759              1.717
 Vibration    14          0.667              1.748              1.671
 Vibration    15          0.695              1.665              1.392
 Vibration    16          0.700              1.653              1.356
 Vibration    17          0.715              1.610              1.246
 Vibration    18          0.729              1.570              1.154
 Vibration    19          0.739              1.542              1.095
 Vibration    20          0.766              1.471              0.964
 Vibration    21          0.816              1.343              0.772
 Vibration    22          0.832              1.304              0.722
 Vibration    23          0.839              1.287              0.701
 Vibration    24          0.857              1.247              0.655
 Vibration    25          0.907              1.137              0.541
 Vibration    26          0.933              1.082              0.492
 Vibration    27          0.977              0.995              0.421

 Optimization completed.
    -- Stationary point found.
 Normal termination of Gaussian 16 at Wed May 24 09:29:36 2023.
