 Gaussian 16, Revision A.03,
 Gaussian 16:  ES64L-G16RevA.03 25-Dec-2016

 -----------------------------
 # opt freq b3lyp/6-31g(2df,p)
 -----------------------------

 -------------------
 Title Card Required
 -------------------
 Symbolic Z-matrix:
 Charge =  0 Multiplicity = 1

 SCF Done:  E(RB3LYP) =  -580.698113731     A.U. after   12 cycles
 SCF Done:  E(RB3LYP) =  -580.704732962     A.U. after   13 cycles
 SCF Done:  E(RB3LYP) =  -580.708178605     A.U. after   11 cycles
 SCF Done:  E(RB3LYP) =  -580.708795555     A.U. after   10 cycles
 SCF Done:  E(RB3LYP) =  -580.708950235     A.U. after    9 cycles
 SCF Done:  E(RB3LYP) =  -580.708989146     A.U. after    9 cycles
 SCF Done:  E(RB3LYP) =  -580.709012145     A.U. after    9 cycles
 SCF Done:  E(RB3LYP) =  -580.709023998     A.U. after    9 cycles
 SCF Done:  E(RB3LYP) =  -580.709048483     A.U. after   10 cycles
 SCF Done:  E(RB3LYP) =  -580.709078828     A.U. after   10 cycles
 SCF Done:  E(RB3LYP) =  -580.709084319     A.U. after   10 cycles
 SCF Done:  E(RB3LYP) =  -580.709096031     A.U. after   10 cycles
 SCF Done:  E(RB3LYP) =  -580.709096922     A.U. after    9 cycles
 SCF Done:  E(RB3LYP) =  -580.709097265     A.U. after    9 cycles
 SCF Done:  E(RB3LYP) =  -580.709097402     A.U. after    9 cycles
 SCF Done:  E(RB3LYP) =  -580.709097674     A.U. after    7 cycles
 SCF Done:  E(RB3LYP) =  -580.709097688     A.U. after    6 cycles
 Optimization completed.
    -- Stationary point found.
 Normal termination of Gaussian 16 at Tue May 23 21:08:50 2023.

 ----------------------------------------------------------------------
 #N Geom=AllCheck Guess=TCheck SCRF=Check GenChk RB3LYP/6-31G(2df,p) Fr
 eq
 ----------------------------------------------------------------------

 Structure from the checkpoint file:  "COCCCCqOrOCqCrqCrC.chk"
 -------------------
 Title Card Required
 -------------------
 Charge =  0 Multiplicity = 1

                         Standard orientation:
 ---------------------------------------------------------------------
 Center     Atomic      Atomic             Coordinates (Angstroms)
 Number     Number       Type             X           Y           Z
 ---------------------------------------------------------------------
      1          6           0        5.606063   -0.297821   -0.059970
      2          8           0        4.375078    0.252099    0.337700
      3          6           0        3.266957   -0.417086   -0.223521
      4          6           0        1.991828    0.252527    0.269176
      5          6           0        0.731005   -0.412766   -0.286112
      6          6           0       -0.557901    0.269307    0.175844
      7          8           0       -0.599724    1.638659   -0.182200
      8          8           0       -1.609923   -0.473629   -0.374877
      9          6           0       -2.979557   -0.225336    0.028832
     10          6           0       -3.105620    0.031659    1.535649
     11          6           0       -3.556642    0.952926   -0.772375
     12          6           0       -3.699197   -1.524737   -0.349010
     13          1           0        6.396871    0.282178    0.422416
     14          1           0        5.745146   -0.247041   -1.152207
     15          1           0        5.702934   -1.352362    0.245699
     16          1           0        3.278868   -1.484231    0.062278
     17          1           0        3.317585   -0.384023   -1.326837
     18          1           0        2.009826    1.309965   -0.012166
     19          1           0        1.983858    0.221806    1.365642
     20          1           0        0.681320   -1.465196    0.015107
     21          1           0        0.739533   -0.406234   -1.385128
     22          1           0       -0.604703    0.283090    1.271910
     23          1           0       -0.562082    1.678653   -1.146052
     24          1           0       -2.657204    0.984881    1.828157
     25          1           0       -2.636928   -0.771905    2.112730
     26          1           0       -4.164232    0.068199    1.809570
     27          1           0       -3.053521    1.884789   -0.509516
     28          1           0       -4.627748    1.063728   -0.572713
     29          1           0       -3.427425    0.775427   -1.844646
     30          1           0       -3.301621   -2.365297    0.226904
     31          1           0       -3.552322   -1.740443   -1.411076
     32          1           0       -4.773216   -1.445055   -0.156128
 ---------------------------------------------------------------------

 SCF Done:  E(RB3LYP) =  -580.709097688     A.U. after    1 cycles

 The electronic state is 1-A.
 Alpha  occ. eigenvalues --  -19.13891 -19.13425 -19.13333 -10.27061 -10.23825
 Alpha  occ. eigenvalues --  -10.22270 -10.22023 -10.17967 -10.17566 -10.17307
 Alpha  occ. eigenvalues --  -10.16865 -10.16574  -1.05450  -1.02807  -0.99185
 Alpha  occ. eigenvalues --   -0.80330  -0.78199  -0.71839  -0.69034  -0.68360
 Alpha  occ. eigenvalues --   -0.66058  -0.61455  -0.59128  -0.56250  -0.49383
 Alpha  occ. eigenvalues --   -0.49030  -0.48039  -0.47203  -0.45912  -0.44603
 Alpha  occ. eigenvalues --   -0.43979  -0.43322  -0.41872  -0.41115  -0.38937
 Alpha  occ. eigenvalues --   -0.38488  -0.37429  -0.37121  -0.36271  -0.35323
 Alpha  occ. eigenvalues --   -0.34779  -0.34147  -0.33703  -0.32911  -0.31167
 Alpha  occ. eigenvalues --   -0.29172  -0.28293  -0.25861  -0.25049
 Alpha virt. eigenvalues --    0.07547   0.09040   0.09659   0.11050   0.11428
 Alpha virt. eigenvalues --    0.12909   0.14272   0.14564   0.14919   0.15472
 Alpha virt. eigenvalues --    0.15533   0.16514   0.16947   0.17264   0.17924

 Mulliken charges:
               1
     1  C   -0.226552
     2  O   -0.230052
     3  C   -0.050114
     4  C   -0.194789
     5  C   -0.221852
     6  C    0.172318
     7  O   -0.407730
     8  O   -0.301637
     9  C    0.378846
    10  C   -0.432493
    11  C   -0.410117
    12  C   -0.392663
    13  H    0.125241
    14  H    0.100542
    15  H    0.100768
    16  H    0.080971
    17  H    0.079963
    18  H    0.115702
    19  H    0.104894
    20  H    0.106386
    21  H    0.092904
    22  H    0.083935
    23  H    0.276694
    24  H    0.133209
    25  H    0.117074
    26  H    0.114728
    27  H    0.130905
    28  H    0.105996
    29  H    0.107691
    30  H    0.113272
    31  H    0.117791
    32  H    0.108170
 Sum of Mulliken charges =  -0.00000

 Dipole moment (field-independent basis, Debye):
    X=             -0.3051    Y=             -1.0445    Z=             -0.7988  Tot=              1.3498
 Quadrupole moment (field-independent basis, Debye-Ang):
   XX=            -69.7990   YY=            -78.6917   ZZ=            -73.7401
   XY=             -3.5505   XZ=             -3.6876   YZ=             -2.9900

  Exact polarizability: 142.273   0.809  99.757   0.133  -1.153  99.411
 Approx polarizability: 158.432   1.226 148.619   0.081  -0.006 149.648

                      1                      2                      3
                      A                      A                      A
 Frequencies --     26.0423                41.3136                55.4898
 Red. masses --      3.0066                 3.0139                 2.6496
 Frc consts  --      0.0012                 0.0030                 0.0048
 IR Inten    --      1.2760                 0.3246                 0.8906

                      4                      5                      6
                      A                      A                      A
 Frequencies --     69.7090               100.5261               130.2192
 Red. masses --      3.2322                 2.8157                 2.3870
 Frc consts  --      0.0093                 0.0168                 0.0238
 IR Inten    --      0.4934                 0.0949                 3.1522

                      7                      8                      9
                      A                      A                      A
 Frequencies --    154.7180               176.0197               213.1651
 Red. masses --      2.4834                 2.9691                 1.0310
 Frc consts  --      0.0350                 0.0542                 0.0276
 IR Inten    --      0.6201                 0.4068                 0.9633

                     10                     11                     12
                      A                      A                      A
 Frequencies --    223.3576               236.6981               265.2825
 Red. masses --      4.1115                 1.2627                 2.3016
 Frc consts  --      0.1209                 0.0417                 0.0954
 IR Inten    --      0.1266                 2.5412                 0.3614

                     13                     14                     15
                      A                      A                      A
 Frequencies --    270.1289               296.6691               302.2120
 Red. masses --      1.2262                 1.8615                 1.2492
 Frc consts  --      0.0527                 0.0965                 0.0672
 IR Inten    --      6.4664                 1.7225                 1.8311

                     16                     17                     18
                      A                      A                      A
 Frequencies --    344.4566               365.9512               393.7739
 Red. masses --      2.4945                 1.4816                 2.0185
 Frc consts  --      0.1744                 0.1169                 0.1844
 IR Inten    --      1.9156                74.7379                44.5167

                     19                     20                     21
                      A                      A                      A
 Frequencies --    420.3606               436.6395               460.7283
 Red. masses --      2.4700                 2.6670                 2.7386
 Frc consts  --      0.2572                 0.2996                 0.3425
 IR Inten    --     12.2483                12.8596                 4.3467

                     22                     23                     24
                      A                      A                      A
 Frequencies --    511.9191               552.5634               633.8785
 Red. masses --      2.8815                 2.5478                 4.4096
 Frc consts  --      0.4449                 0.4583                 1.0439
 IR Inten    --      5.4158                 9.0758                30.1794

                     25                     26                     27
                      A                      A                      A
 Frequencies --    754.0433               762.9107               851.8814
 Red. masses --      3.3589                 1.1873                 1.5772
 Frc consts  --      1.1252                 0.4072                 0.6744
 IR Inten    --      1.9327                 1.0822                 6.8579

                     28                     29                     30
                      A                      A                      A
 Frequencies --    880.9468               911.9601               923.3341
 Red. masses --      2.7835                 1.6928                 1.6053
 Frc consts  --      1.2727                 0.8295                 0.8064
 IR Inten    --     13.3187                 0.2488                 0.4687

                     31                     32                     33
                      A                      A                      A
 Frequencies --    941.0481               959.1255               987.0956
 Red. masses --      2.1338                 1.2018                 3.9140
 Frc consts  --      1.1134                 0.6514                 2.2470
 IR Inten    --     32.5387                 0.0379                46.9456

                     34                     35                     36
                      A                      A                      A
 Frequencies --   1037.4082              1045.2718              1058.7209
 Red. masses --      1.9866                 1.4152                 2.1616
 Frc consts  --      1.2597                 0.9110                 1.4275
 IR Inten    --     51.1962                 1.6289                13.0879

                     37                     38                     39
                      A                      A                      A
 Frequencies --   1068.4323              1089.2605              1113.3794
 Red. masses --      2.9865                 1.8573                 2.9547
 Frc consts  --      2.0087                 1.2983                 2.1580
 IR Inten    --     19.2958                93.3063               106.2929

                     40                     41                     42
                      A                      A                      A
 Frequencies --   1137.2055              1166.4469              1178.5055
 Red. masses --      2.8459                 5.7507                 1.2501
 Frc consts  --      2.1684                 4.6100                 1.0230
 IR Inten    --    163.7702               159.1688                 3.9318

                     43                     44                     45
                      A                      A                      A
 Frequencies --   1215.2315              1219.3134              1223.8564
 Red. masses --      1.4834                 1.9096                 1.7057
 Frc consts  --      1.2907                 1.6727                 1.5053
 IR Inten    --     30.6696                17.2145                71.2478

                     46                     47                     48
                      A                      A                      A
 Frequencies --   1255.3765              1267.6302              1275.7928
 Red. masses --      2.6853                 1.4817                 1.9190
 Frc consts  --      2.4934                 1.4028                 1.8403
 IR Inten    --     16.1953                 4.9706                 7.8064

                     49                     50                     51
                      A                      A                      A
 Frequencies --   1284.7269              1308.1903              1338.0244
 Red. masses --      1.4900                 1.0943                 1.3202
 Frc consts  --      1.4489                 1.1034                 1.3926
 IR Inten    --     22.0168                 2.6053                 4.8781

                     52                     53                     54
                      A                      A                      A
 Frequencies --   1360.0207              1391.8060              1393.5802
 Red. masses --      1.3438                 1.3075                 1.3095
 Frc consts  --      1.4645                 1.4923                 1.4984
 IR Inten    --      1.2049                16.4136                 7.9266

                     55                     56                     57
                      A                      A                      A
 Frequencies --   1405.9712              1422.4144              1428.6180
 Red. masses --      1.4495                 1.2300                 1.4221
 Frc consts  --      1.6882                 1.4662                 1.7101
 IR Inten    --     25.3717                17.9064                29.9165

                     58                     59                     60
                      A                      A                      A
 Frequencies --   1435.1351              1470.9146              1481.7199
 Red. masses --      1.1885                 1.0499                 1.1607
 Frc consts  --      1.4423                 1.3383                 1.5014
 IR Inten    --     43.2603                 0.4375                 0.1917

                     61                     62                     63
                      A                      A                      A
 Frequencies --   1483.9927              1485.2088              1487.3356
 Red. masses --      1.0926                 1.0469                 1.0475
 Frc consts  --      1.4177                 1.3606                 1.3652
 IR Inten    --      1.8160                 4.8146                 1.0216

                     64                     65                     66
                      A                      A                      A
 Frequencies --   1488.8088              1497.9338              1500.1340
 Red. masses --      1.0486                 1.0641                 1.0785
 Frc consts  --      1.3694                 1.4068                 1.4300
 IR Inten    --      0.9415                 1.4514                 3.1673

                     67                     68                     69
                      A                      A                      A
 Frequencies --   1503.7743              1508.4358              1524.0940
 Red. masses --      1.0548                 1.0746                 1.0572
 Frc consts  --      1.4053                 1.4406                 1.4468
 IR Inten    --      3.4200                 7.1701                 7.1838

                     70                     71                     72
                      A                      A                      A
 Frequencies --   1533.0276              2935.1508              2959.5956
 Red. masses --      1.0954                 1.0527                 1.1044
 Frc consts  --      1.5168                 5.3434                 5.6995
 IR Inten    --      1.4738                36.2934                59.0715

                     73                     74                     75
                      A                      A                      A
 Frequencies --   2964.8703              3004.9035              3014.3417
 Red. masses --      1.0386                 1.1028                 1.0659
 Frc consts  --      5.3788                 5.8671                 5.7063
 IR Inten    --     78.4808                61.3128                 7.3343

                     76                     77                     78
                      A                      A                      A
 Frequencies --   3032.4997              3036.0742              3037.5778
 Red. masses --      1.0648                 1.0375                 1.0448
 Frc consts  --      5.7694                 5.6348                 5.6797
 IR Inten    --      0.2766                20.3881                 7.0225

                     79                     80                     81
                      A                      A                      A
 Frequencies --   3041.4152              3045.0552              3066.8723
 Red. masses --      1.0609                 1.0424                 1.0955
 Frc consts  --      5.7820                 5.6948                 6.0707
 IR Inten    --     70.0043                14.4860                11.9978

                     82                     83                     84
                      A                      A                      A
 Frequencies --   3095.5608              3102.3121              3107.5505
 Red. masses --      1.1006                 1.1013                 1.1014
 Frc consts  --      6.2140                 6.2448                 6.2664
 IR Inten    --     38.3171                13.5000                 8.6246

                     85                     86                     87
                      A                      A                      A
 Frequencies --   3110.3353              3115.9781              3117.2876
 Red. masses --      1.0953                 1.1020                 1.1017
 Frc consts  --      6.2429                 6.3043                 6.3078
 IR Inten    --     33.5177                16.9844                35.1923

                     88                     89                     90
                      A                      A                      A
 Frequencies --   3118.6874              3139.9462              3781.0563
 Red. masses --      1.1013                 1.0998                 1.0652
 Frc consts  --      6.3113                 6.3888                 8.9723
 IR Inten    --     48.4781                16.1791                14.6552

 - Thermochemistry -
 -------------------
 Temperature   298.150 Kelvin.  Pressure   1.00000 Atm.
 Atom     1 has atomic number  6 and mass  12.00000

 Molecular mass:   176.14124 amu.
 Principal axes and moments of inertia in atomic units:
                           1         2         3
     Eigenvalues --   694.834036379.325506561.73027
           X            0.99998  -0.00384  -0.00452
           Y            0.00378   0.99988  -0.01514
           Z            0.00458   0.01512   0.99988
 This molecule is an asymmetric top.
 Rotational symmetry number  1.
 Warning -- assumption of classical behavior for rotation
           may cause significant error
 Rotational temperatures (Kelvin)      0.12465     0.01358     0.01320
 Rotational constants (GHZ):           2.59737     0.28290     0.27504
 Zero-point vibrational energy     751057.1 (Joules/Mol)
                                  179.50695 (Kcal/Mol)
 Warning -- explicit consideration of  23 degrees of freedom as
           vibrations may cause significant error
 Vibrational temperatures:     37.47    59.44    79.84   100.30   144.63
          (Kelvin)            187.36   222.60   253.25   306.70   321.36
                              340.56   381.68   388.66   426.84   434.82
                              495.60   526.52   566.55   604.81   628.23
                              662.89   736.54   795.02   912.01  1084.90
                             1097.66  1225.67  1267.49  1312.11  1328.47
                             1353.96  1379.97  1420.21  1492.60  1503.91
                             1523.26  1537.24  1567.20  1601.90  1636.19
                             1678.26  1695.61  1748.45  1754.32  1760.86
                             1806.21  1823.84  1835.58  1848.44  1882.19
                             1925.12  1956.77  2002.50  2005.05  2022.88
                             2046.54  2055.46  2064.84  2116.32  2131.86
                             2135.13  2136.88  2139.94  2142.06  2155.19
                             2158.36  2163.60  2170.30  2192.83  2205.68
                             4223.03  4258.20  4265.79  4323.39  4336.97
                             4363.09  4368.23  4370.40  4375.92  4381.16
                             4412.55  4453.82  4463.54  4471.07  4475.08
                             4483.20  4485.08  4487.10  4517.68  5440.10

 Zero-point correction=                           0.286063 (Hartree/Particle)
 Thermal correction to Energy=                    0.301620
 Thermal correction to Enthalpy=                  0.302564
 Thermal correction to Gibbs Free Energy=         0.242561
 Sum of electronic and zero-point Energies=           -580.423035
 Sum of electronic and thermal Energies=              -580.407478
 Sum of electronic and thermal Enthalpies=            -580.406534
 Sum of electronic and thermal Free Energies=         -580.466536

                     E (Thermal)             CV                S
                      KCal/Mol        Cal/Mol-Kelvin    Cal/Mol-Kelvin
 Total                  189.269             56.270            126.286
 Electronic               0.000              0.000              0.000
 Translational            0.889              2.981             41.405
 Rotational               0.889              2.981             31.742
 Vibrational            187.492             50.309             53.139
 Vibration     1          0.593              1.985              6.110
 Vibration     2          0.594              1.981              5.195
 Vibration     3          0.596              1.975              4.611
 Vibration     4          0.598              1.969              4.162
 Vibration     5          0.604              1.949              3.444
 Vibration     6          0.612              1.923              2.943
 Vibration     7          0.620              1.897              2.613
 Vibration     8          0.628              1.872              2.370
 Vibration     9          0.644              1.821              2.016
 Vibration    10          0.649              1.805              1.932
 Vibration    11          0.656              1.785              1.828
 Vibration    12          0.671              1.737              1.627
 Vibration    13          0.674              1.728              1.595
 Vibration    14          0.690              1.680              1.436
 Vibration    15          0.694              1.670              1.405
 Vibration    16          0.723              1.587              1.191
 Vibration    17          0.739              1.542              1.097
 Vibration    18          0.761              1.483              0.986
 Vibration    19          0.783              1.426              0.891
 Vibration    20          0.797              1.390              0.837
 Vibration    21          0.819              1.337              0.764
 Vibration    22          0.867              1.224              0.629
 Vibration    23          0.908              1.134              0.539

 Optimization completed.
    -- Stationary point found.
 Normal termination of Gaussian 16 at Tue May 23 22:33:48 2023.
