 Gaussian 16, Revision A.03,
 Gaussian 16:  ES64L-G16RevA.03 25-Dec-2016

 -----------------------------
 # opt freq b3lyp/6-31g(2df,p)
 -----------------------------

 -------------------
 Title Card Required
 -------------------
 Symbolic Z-matrix:
 Charge =  0 Multiplicity = 1

 SCF Done:  E(RB3LYP) =  -880.019759658     A.U. after   14 cycles
 SCF Done:  E(RB3LYP) =  -880.039495344     A.U. after   15 cycles
 SCF Done:  E(RB3LYP) =  -880.049487696     A.U. after   13 cycles
 SCF Done:  E(RB3LYP) =  -880.053370107     A.U. after   13 cycles
 SCF Done:  E(RB3LYP) =  -880.054639228     A.U. after   13 cycles
 SCF Done:  E(RB3LYP) =  -880.056319538     A.U. after   12 cycles
 SCF Done:  E(RB3LYP) =  -880.057171794     A.U. after   13 cycles
 SCF Done:  E(RB3LYP) =  -880.058114887     A.U. after   13 cycles
 SCF Done:  E(RB3LYP) =  -880.058354185     A.U. after   12 cycles
 SCF Done:  E(RB3LYP) =  -880.058598292     A.U. after   13 cycles
 SCF Done:  E(RB3LYP) =  -880.058760504     A.U. after   11 cycles
 SCF Done:  E(RB3LYP) =  -880.058841559     A.U. after   12 cycles
 SCF Done:  E(RB3LYP) =  -880.058853921     A.U. after   11 cycles
 SCF Done:  E(RB3LYP) =  -880.058866461     A.U. after    9 cycles
 SCF Done:  E(RB3LYP) =  -880.058868513     A.U. after    9 cycles
 SCF Done:  E(RB3LYP) =  -880.058868755     A.U. after    8 cycles
 SCF Done:  E(RB3LYP) =  -880.058868779     A.U. after    7 cycles
 Optimization completed.
    -- Stationary point found.
 Normal termination of Gaussian 16 at Sun May 28 19:35:22 2023.

 ----------------------------------------------------------------------
 #N Geom=AllCheck Guess=TCheck SCRF=Check GenChk RB3LYP/6-31G(2df,p) Fr
 eq
 ----------------------------------------------------------------------

 Structure from the checkpoint file:  "COCC1CCCqOOrCCqCdCdOrCqdOrO1.chk"
 -------------------
 Title Card Required
 -------------------
 Charge =  0 Multiplicity = 1

                         Standard orientation:
 ---------------------------------------------------------------------
 Center     Atomic      Atomic             Coordinates (Angstroms)
 Number     Number       Type             X           Y           Z
 ---------------------------------------------------------------------
      1          6           0       -4.511638    0.434484    0.911571
      2          8           0       -3.208681   -0.061941    0.711829
      3          6           0       -2.534194    0.578141   -0.345858
      4          6           0       -1.142675   -0.040547   -0.458884
      5          6           0       -1.187627   -1.533368   -0.767700
      6          6           0        0.164605   -2.192154   -1.091556
      7          6           0        1.322013   -1.985606   -0.087604
      8          8           0        0.710719   -1.912635    1.205080
      9          8           0        1.760793   -1.975579    2.200578
     10          6           0        2.280211   -0.819363   -0.383525
     11          6           0        1.778295    0.645879   -0.421732
     12          6           0        1.369087    1.161999    0.952853
     13          6           0        1.432191    2.429340    1.287732
     14          8           0        1.483034    3.552564    1.590519
     15          6           0        0.817252    0.919263   -1.604358
     16          8           0        1.256669    1.368898   -2.631505
     17          8           0       -0.509346    0.683290   -1.528718
     18          1           0       -4.947236   -0.118215    1.747230
     19          1           0       -5.142975    0.291445    0.020723
     20          1           0       -4.504614    1.507504    1.158346
     21          1           0       -2.435278    1.659253   -0.158748
     22          1           0       -3.076026    0.454621   -1.298532
     23          1           0       -0.617929    0.132265    0.478234
     24          1           0       -1.851491   -1.699749   -1.624917
     25          1           0       -1.650227   -2.021154    0.093706
     26          1           0        0.515901   -1.856620   -2.073199
     27          1           0       -0.016248   -3.267381   -1.186130
     28          1           0        1.949067   -2.887822   -0.106511
     29          1           0        1.542094   -2.816082    2.627455
     30          1           0        2.736351   -1.034104   -1.357271
     31          1           0        3.084944   -0.861187    0.356296
     32          1           0        2.650451    1.217494   -0.747573
     33          1           0        1.092586    0.474564    1.742997
 ---------------------------------------------------------------------

 SCF Done:  E(RB3LYP) =  -880.058868779     A.U. after    1 cycles

 The electronic state is 1-A.
 Alpha  occ. eigenvalues --  -19.20895 -19.20672 -19.20525 -19.17647 -19.14832
 Alpha  occ. eigenvalues --  -19.11398 -10.30251 -10.29789 -10.25140 -10.24140
 Alpha  occ. eigenvalues --  -10.23196 -10.22967 -10.22315 -10.20028 -10.19948
 Alpha  occ. eigenvalues --  -10.19297 -10.18924  -1.13022  -1.11104  -1.09251
 Alpha  occ. eigenvalues --   -1.04180  -1.00977  -0.92981  -0.82690  -0.80670
 Alpha  occ. eigenvalues --   -0.77398  -0.74464  -0.70116  -0.68538  -0.64034
 Alpha  occ. eigenvalues --   -0.61022  -0.59320  -0.55932  -0.54654  -0.53535
 Alpha  occ. eigenvalues --   -0.51080  -0.50510  -0.49108  -0.48395  -0.47772
 Alpha  occ. eigenvalues --   -0.47512  -0.46307  -0.45827  -0.45511  -0.44221
 Alpha  occ. eigenvalues --   -0.43645  -0.42804  -0.41523  -0.40966  -0.40644
 Alpha  occ. eigenvalues --   -0.39824  -0.37775  -0.37227  -0.36814  -0.35875
 Alpha  occ. eigenvalues --   -0.35129  -0.34501  -0.32902  -0.31873  -0.31043
 Alpha  occ. eigenvalues --   -0.28719  -0.27456  -0.26507  -0.26246  -0.22521
 Alpha virt. eigenvalues --   -0.03371   0.01288   0.01381   0.05333   0.06024
 Alpha virt. eigenvalues --    0.07976   0.09270   0.11050   0.11693   0.12276
 Alpha virt. eigenvalues --    0.12719   0.13716   0.14321   0.14822   0.15231

 Mulliken charges:
               1
     1  C   -0.225093
     2  O   -0.238247
     3  C   -0.078626
     4  C    0.081507
     5  C   -0.192438
     6  C   -0.277572
     7  C    0.158729
     8  O   -0.194441
     9  O   -0.323227
    10  C   -0.261762
    11  C   -0.162438
    12  C   -0.467140
    13  C    0.495748
    14  O   -0.225439
    15  C    0.383383
    16  O   -0.331072
    17  O   -0.241805
    18  H    0.128576
    19  H    0.107734
    20  H    0.109416
    21  H    0.099652
    22  H    0.097597
    23  H    0.122235
    24  H    0.101676
    25  H    0.133871
    26  H    0.129828
    27  H    0.109250
    28  H    0.079634
    29  H    0.317273
    30  H    0.123208
    31  H    0.130608
    32  H    0.128022
    33  H    0.181354
 Sum of Mulliken charges =  -0.00000

 Dipole moment (field-independent basis, Debye):
    X=             -1.0802    Y=             -4.2932    Z=              2.2976  Tot=              4.9877
 Quadrupole moment (field-independent basis, Debye-Ang):
   XX=            -90.0737   YY=            -97.9402   ZZ=           -106.5670
   XY=             -8.6024   XZ=              2.2185   YZ=              0.9411

  Exact polarizability: 140.032   3.308 144.257  -1.782   4.939 129.215
 Approx polarizability: 185.486   8.703 218.181  -3.065   5.742 201.015

                      1                      2                      3
                      A                      A                      A
 Frequencies --     28.9808                48.5300                52.9164
 Red. masses --      7.9055                 5.0967                 4.8641
 Frc consts  --      0.0039                 0.0071                 0.0080
 IR Inten    --      0.3550                 0.5316                 0.2260

                      4                      5                      6
                      A                      A                      A
 Frequencies --     65.8199                76.0380                87.2453
 Red. masses --      7.9963                 5.7280                 2.3972
 Frc consts  --      0.0204                 0.0195                 0.0108
 IR Inten    --      2.1280                 1.3108                 4.3330

                      7                      8                      9
                      A                      A                      A
 Frequencies --    118.2128               139.0542               146.4891
 Red. masses --      4.0533                 4.6990                 3.7942
 Frc consts  --      0.0334                 0.0535                 0.0480
 IR Inten    --      1.1678                 0.6021                 3.5336

                     10                     11                     12
                      A                      A                      A
 Frequencies --    184.2455               191.8918               199.5024
 Red. masses --      2.8206                 3.5637                 2.8781
 Frc consts  --      0.0564                 0.0773                 0.0675
 IR Inten    --      0.7189                21.3147                19.2491

                     13                     14                     15
                      A                      A                      A
 Frequencies --    213.6011               236.3454               253.6590
 Red. masses --      1.4768                 1.4361                 2.9685
 Frc consts  --      0.0397                 0.0473                 0.1125
 IR Inten    --     52.9153                 5.7650                 0.2457

                     16                     17                     18
                      A                      A                      A
 Frequencies --    279.8631               304.6912               332.6066
 Red. masses --      3.8614                 3.4481                 5.5962
 Frc consts  --      0.1782                 0.1886                 0.3648
 IR Inten    --      1.7410                 1.0935                 2.0105

                     19                     20                     21
                      A                      A                      A
 Frequencies --    355.4990               369.8329               405.0126
 Red. masses --      5.2231                 2.2014                 3.5136
 Frc consts  --      0.3889                 0.1774                 0.3396
 IR Inten    --      2.7983                 4.1782                 4.6370

                     22                     23                     24
                      A                      A                      A
 Frequencies --    441.5736               481.5778               507.6101
 Red. masses --      2.9839                 5.5546                 2.7832
 Frc consts  --      0.3428                 0.7590                 0.4225
 IR Inten    --      2.9554                 2.7870                 1.4990

                     25                     26                     27
                      A                      A                      A
 Frequencies --    554.1739               578.7738               597.4142
 Red. masses --      3.6863                 2.3340                 3.4170
 Frc consts  --      0.6670                 0.4606                 0.7185
 IR Inten    --      0.5163                21.6996                 1.0939

                     28                     29                     30
                      A                      A                      A
 Frequencies --    629.8832               659.5867               698.4918
 Red. masses --      2.7283                 5.4714                 4.6991
 Frc consts  --      0.6378                 1.4025                 1.3508
 IR Inten    --     37.3262                 7.6956                23.2377

                     31                     32                     33
                      A                      A                      A
 Frequencies --    724.9222               783.4214               801.0166
 Red. masses --      4.4667                 2.7279                 3.3146
 Frc consts  --      1.3830                 0.9864                 1.2531
 IR Inten    --      1.5351                 1.6338                 7.1425

                     34                     35                     36
                      A                      A                      A
 Frequencies --    841.5814               864.7215               918.7044
 Red. masses --      2.2302                 3.2044                 2.2141
 Frc consts  --      0.9307                 1.4117                 1.1010
 IR Inten    --      5.1643                 3.7687                 9.6013

                     37                     38                     39
                      A                      A                      A
 Frequencies --    952.9392               972.4548               980.0941
 Red. masses --      5.7974                 2.5017                 3.1175
 Frc consts  --      3.1018                 1.3939                 1.7644
 IR Inten    --      2.4971                 2.9285                30.7303

                     40                     41                     42
                      A                      A                      A
 Frequencies --    997.4510              1021.5431              1046.9444
 Red. masses --      3.6254                 2.8597                 2.6583
 Frc consts  --      2.1252                 1.7583                 1.7168
 IR Inten    --     15.7240                27.3363                28.7369

                     43                     44                     45
                      A                      A                      A
 Frequencies --   1066.0804              1112.8262              1122.5337
 Red. masses --      2.6235                 2.8704                 2.9183
 Frc consts  --      1.7568                 2.0943                 2.1666
 IR Inten    --      3.0733                33.2807                11.5902

                     46                     47                     48
                      A                      A                      A
 Frequencies --   1125.5358              1157.7815              1163.2131
 Red. masses --      2.2489                 2.1033                 1.7656
 Frc consts  --      1.6786                 1.6611                 1.4076
 IR Inten    --     22.0396                43.8938                25.2128

                     49                     50                     51
                      A                      A                      A
 Frequencies --   1175.8206              1184.9180              1209.2695
 Red. masses --      3.7726                 1.3225                 1.6171
 Frc consts  --      3.0731                 1.0940                 1.3932
 IR Inten    --    181.9227                 1.7104                68.6009

                     52                     53                     54
                      A                      A                      A
 Frequencies --   1227.8258              1233.2680              1244.1346
 Red. masses --      1.2927                 1.6081                 1.4825
 Frc consts  --      1.1482                 1.4410                 1.3520
 IR Inten    --     26.2660                21.8606               121.3078

                     55                     56                     57
                      A                      A                      A
 Frequencies --   1273.1948              1291.1478              1305.2781
 Red. masses --      1.3959                 1.4625                 1.3472
 Frc consts  --      1.3332                 1.4365                 1.3523
 IR Inten    --      7.5687                33.8309                28.4536

                     58                     59                     60
                      A                      A                      A
 Frequencies --   1330.6694              1342.0639              1354.8301
 Red. masses --      1.3542                 1.2720                 1.3668
 Frc consts  --      1.4128                 1.3499                 1.4781
 IR Inten    --     42.4185                14.8477                 3.8055

                     61                     62                     63
                      A                      A                      A
 Frequencies --   1358.9479              1377.1524              1379.4479
 Red. masses --      1.3685                 1.2257                 1.3154
 Frc consts  --      1.4891                 1.3697                 1.4747
 IR Inten    --     10.1630                46.7957                 7.0957

                     64                     65                     66
                      A                      A                      A
 Frequencies --   1388.4623              1407.3041              1412.6237
 Red. masses --      1.5160                 2.0668                 1.4107
 Frc consts  --      1.7220                 2.4117                 1.6586
 IR Inten    --      8.4078                22.6100                16.9790

                     67                     68                     69
                      A                      A                      A
 Frequencies --   1418.4792              1424.7264              1469.7593
 Red. masses --      1.3583                 1.4467                 1.0833
 Frc consts  --      1.6103                 1.7302                 1.3788
 IR Inten    --     19.1892                 9.9628                12.8920

                     70                     71                     72
                      A                      A                      A
 Frequencies --   1477.4176              1481.9617              1485.7936
 Red. masses --      1.0849                 1.1625                 1.0467
 Frc consts  --      1.3952                 1.5043                 1.3614
 IR Inten    --      3.7222                 1.1205                 5.3259

                     73                     74                     75
                      A                      A                      A
 Frequencies --   1496.3984              1504.0766              1527.3450
 Red. masses --      1.0914                 1.0626                 1.0893
 Frc consts  --      1.4399                 1.4163                 1.4972
 IR Inten    --      7.8055                12.0711                 2.3031

                     76                     77                     78
                      A                      A                      A
 Frequencies --   1809.5508              2223.0955              2961.5907
 Red. masses --     11.7310                12.4737                 1.0516
 Frc consts  --     22.6321                36.3215                 5.4346
 IR Inten    --    302.5348               783.5518                27.8310

                     79                     80                     81
                      A                      A                      A
 Frequencies --   2976.5326              2998.3272              3000.5611
 Red. masses --      1.0405                 1.0831                 1.1044
 Frc consts  --      5.4312                 5.7368                 5.8586
 IR Inten    --     76.4228                26.9640                50.4274

                     82                     83                     84
                      A                      A                      A
 Frequencies --   3020.4298              3034.9593              3042.2142
 Red. masses --      1.1035                 1.0666                 1.0643
 Frc consts  --      5.9317                 5.7886                 5.8037
 IR Inten    --     43.6296                18.7230                13.0615

                     85                     86                     87
                      A                      A                      A
 Frequencies --   3051.4285              3073.9015              3081.3872
 Red. masses --      1.0623                 1.0841                 1.1024
 Frc consts  --      5.8277                 6.0355                 6.1669
 IR Inten    --     38.7427                 8.9960                19.5828

                     88                     89                     90
                      A                      A                      A
 Frequencies --   3094.1431              3109.7334              3116.6973
 Red. masses --      1.0993                 1.0942                 1.0965
 Frc consts  --      6.2009                 6.2346                 6.2753
 IR Inten    --      7.8973                10.5055                27.1435

                     91                     92                     93
                      A                      A                      A
 Frequencies --   3151.7393              3204.6670              3758.4661
 Red. masses --      1.0835                 1.0856                 1.0686
 Frc consts  --      6.3415                 6.5689                 8.8941
 IR Inten    --      8.1688                29.7542                45.3578

 - Thermochemistry -
 -------------------
 Temperature   298.150 Kelvin.  Pressure   1.00000 Atm.
 Atom     1 has atomic number  6 and mass  12.00000

 Molecular mass:   244.09469 amu.
 Principal axes and moments of inertia in atomic units:
                           1         2         3
     Eigenvalues --  3858.891504891.600465711.18325
           X            0.99783  -0.06436  -0.01404
           Y            0.06467   0.99765   0.02247
           Z            0.01256  -0.02333   0.99965
 This molecule is an asymmetric top.
 Rotational symmetry number  1.
 Warning -- assumption of classical behavior for rotation
           may cause significant error
 Rotational temperatures (Kelvin)      0.02245     0.01771     0.01517
 Rotational constants (GHZ):           0.46768     0.36895     0.31600
 Zero-point vibrational energy     702116.0 (Joules/Mol)
                                  167.80975 (Kcal/Mol)
 Warning -- explicit consideration of  27 degrees of freedom as
           vibrations may cause significant error
 Vibrational temperatures:     41.70    69.82    76.13    94.70   109.40
          (Kelvin)            125.53   170.08   200.07   210.77   265.09
                              276.09   287.04   307.32   340.05   364.96
                              402.66   438.38   478.55   511.48   532.11
                              582.72   635.33   692.88   730.34   797.33
                              832.73   859.55   906.26   949.00  1004.97
                             1043.00  1127.17  1152.48  1210.85  1244.14
                             1321.81  1371.07  1399.15  1410.14  1435.11
                             1469.77  1506.32  1533.85  1601.11  1615.08
                             1619.39  1665.79  1673.60  1691.74  1704.83
                             1739.87  1766.57  1774.40  1790.03  1831.84
                             1857.67  1878.00  1914.54  1930.93  1949.30
                             1955.22  1981.42  1984.72  1997.69  2024.80
                             2032.45  2040.88  2049.86  2114.66  2125.67
                             2132.21  2137.73  2152.98  2164.03  2197.51
                             2603.54  3198.54  4261.07  4282.57  4313.92
                             4317.14  4345.72  4366.63  4377.07  4390.33
                             4422.66  4433.43  4451.78  4474.21  4484.23
                             4534.65  4610.80  5407.59

 Zero-point correction=                           0.267422 (Hartree/Particle)
 Thermal correction to Energy=                    0.285345
 Thermal correction to Enthalpy=                  0.286289
 Thermal correction to Gibbs Free Energy=         0.220484
 Sum of electronic and zero-point Energies=           -879.791447
 Sum of electronic and thermal Energies=              -879.773524
 Sum of electronic and thermal Enthalpies=            -879.772579
 Sum of electronic and thermal Free Energies=         -879.838385

                     E (Thermal)             CV                S
                      KCal/Mol        Cal/Mol-Kelvin    Cal/Mol-Kelvin
 Total                  179.057             64.914            138.498
 Electronic               0.000              0.000              0.000
 Translational            0.889              2.981             42.378
 Rotational               0.889              2.981             33.044
 Vibrational            177.279             58.952             63.076
 Vibration     1          0.593              1.984              5.898
 Vibration     2          0.595              1.978              4.876
 Vibration     3          0.596              1.976              4.705
 Vibration     4          0.597              1.971              4.275
 Vibration     5          0.599              1.965              3.991
 Vibration     6          0.601              1.958              3.721
 Vibration     7          0.608              1.934              3.129
 Vibration     8          0.615              1.914              2.817
 Vibration     9          0.617              1.906              2.717
 Vibration    10          0.631              1.861              2.285
 Vibration    11          0.634              1.851              2.209
 Vibration    12          0.638              1.841              2.138
 Vibration    13          0.644              1.820              2.013
 Vibration    14          0.655              1.785              1.830
 Vibration    15          0.665              1.757              1.705
 Vibration    16          0.680              1.711              1.535
 Vibration    17          0.696              1.665              1.391
 Vibration    18          0.715              1.610              1.247
 Vibration    19          0.731              1.564              1.142
 Vibration    20          0.742              1.534              1.080
 Vibration    21          0.770              1.459              0.944
 Vibration    22          0.801              1.379              0.822
 Vibration    23          0.838              1.291              0.706
 Vibration    24          0.863              1.233              0.639
 Vibration    25          0.910              1.131              0.536
 Vibration    26          0.935              1.077              0.488
 Vibration    27          0.955              1.037              0.454

                           ! Non-Optimized Parameters !
 Normal termination of Gaussian 16 at Sun May 28 23:05:10 2023.
