 Gaussian 16, Revision A.03,
 Gaussian 16:  ES64L-G16RevA.03 25-Dec-2016

 -----------------------------
 # opt freq b3lyp/6-31g(2df,p)
 -----------------------------

 -------------------
 Title Card Required
 -------------------
 Symbolic Z-matrix:
 Charge =  0 Multiplicity = 1

 SCF Done:  E(RB3LYP) =  -585.073183365     A.U. after   12 cycles
 SCF Done:  E(RB3LYP) =  -585.086562448     A.U. after   11 cycles
 SCF Done:  E(RB3LYP) =  -585.091444418     A.U. after   10 cycles
 SCF Done:  E(RB3LYP) =  -585.093338062     A.U. after   10 cycles
 SCF Done:  E(RB3LYP) =  -585.093767900     A.U. after    9 cycles
 SCF Done:  E(RB3LYP) =  -585.093843723     A.U. after    8 cycles
 SCF Done:  E(RB3LYP) =  -585.093871752     A.U. after    8 cycles
 SCF Done:  E(RB3LYP) =  -585.093890421     A.U. after    8 cycles
 SCF Done:  E(RB3LYP) =  -585.093900824     A.U. after    8 cycles
 SCF Done:  E(RB3LYP) =  -585.093904522     A.U. after    8 cycles
 SCF Done:  E(RB3LYP) =  -585.093904622     A.U. after    7 cycles
 SCF Done:  E(RB3LYP) =  -585.093903560     A.U. after    6 cycles
 SCF Done:  E(RB3LYP) =  -585.093903150     A.U. after    6 cycles
 SCF Done:  E(RB3LYP) =  -585.093902666     A.U. after    6 cycles
 Optimization completed.
    -- Stationary point found.
 Normal termination of Gaussian 16 at Mon May 22 11:09:34 2023.

 ----------------------------------------------------------------------
 #N Geom=AllCheck Guess=TCheck SCRF=Check GenChk RB3LYP/6-31G(2df,p) Fr
 eq
 ----------------------------------------------------------------------

 Structure from the checkpoint file:  "COCCC1CC2CCqCrCqCrqC1rC2.chk"
 -------------------
 Title Card Required
 -------------------
 Charge =  0 Multiplicity = 1

                         Standard orientation:
 ---------------------------------------------------------------------
 Center     Atomic      Atomic             Coordinates (Angstroms)
 Number     Number       Type             X           Y           Z
 ---------------------------------------------------------------------
      1          6           0       -4.906888    0.479771   -1.171425
      2          8           0       -4.172552    0.252490    0.004982
      3          6           0       -2.780637    0.160118   -0.224729
      4          6           0       -2.102436   -0.068057    1.123494
      5          6           0       -0.578229   -0.293294    1.102386
      6          6           0       -0.163398   -1.630663    0.452057
      7          6           0        1.360949   -1.703885    0.170544
      8          6           0        1.734005   -1.203785   -1.250491
      9          6           0        2.081689    0.312694   -1.115290
     10          6           0        3.525891    0.596108   -1.548580
     11          6           0        1.756470    0.639609    0.383520
     12          6           0        2.528550    1.832110    0.953469
     13          6           0        0.212810    0.896875    0.522976
     14          6           0        2.112779   -0.701559    1.064775
     15          1           0       -5.962942    0.535152   -0.894978
     16          1           0       -4.774447   -0.334292   -1.902769
     17          1           0       -4.618631    1.424714   -1.660348
     18          1           0       -2.417955    1.085401   -0.702369
     19          1           0       -2.569344   -0.665176   -0.925433
     20          1           0       -2.585328   -0.934465    1.592080
     21          1           0       -2.332982    0.793837    1.761577
     22          1           0       -0.291879   -0.365542    2.159187
     23          1           0       -0.708709   -1.795373   -0.484685
     24          1           0       -0.462578   -2.446281    1.121099
     25          1           0        1.702916   -2.732457    0.315720
     26          1           0        0.928408   -1.385362   -1.968817
     27          1           0        2.608241   -1.750231   -1.620461
     28          1           0        1.430693    0.913242   -1.760131
     29          1           0        4.253116    0.059172   -0.928752
     30          1           0        3.768607    1.662063   -1.504331
     31          1           0        3.676704    0.266410   -2.582343
     32          1           0        2.292873    2.756747    0.413101
     33          1           0        3.611339    1.683385    0.906476
     34          1           0        2.263005    1.992232    2.004385
     35          1           0       -0.189214    1.174738   -0.457928
     36          1           0        0.042071    1.766710    1.168657
     37          1           0        1.832699   -0.748344    2.121226
     38          1           0        3.194425   -0.872452    1.013748
 ---------------------------------------------------------------------

 SCF Done:  E(RB3LYP) =  -585.093902666     A.U. after    1 cycles

 The electronic state is 1-A.
 Alpha  occ. eigenvalues --  -19.13292 -10.21958 -10.21920 -10.18470 -10.18064
 Alpha  occ. eigenvalues --  -10.17713 -10.17693 -10.17290 -10.17067 -10.17011
 Alpha  occ. eigenvalues --  -10.16886 -10.16803 -10.16798 -10.16670  -1.02616
 Alpha  occ. eigenvalues --   -0.85661  -0.79494  -0.75934  -0.74463  -0.71688
 Alpha  occ. eigenvalues --   -0.67761  -0.66419  -0.66136  -0.61651  -0.60854
 Alpha  occ. eigenvalues --   -0.56660  -0.52709  -0.51047  -0.48989  -0.47542
 Alpha  occ. eigenvalues --   -0.47284  -0.46478  -0.44378  -0.43846  -0.43014
 Alpha  occ. eigenvalues --   -0.41457  -0.40685  -0.40096  -0.39436  -0.38418
 Alpha  occ. eigenvalues --   -0.37400  -0.36493  -0.36369  -0.35463  -0.34516
 Alpha  occ. eigenvalues --   -0.33464  -0.33097  -0.31737  -0.30873  -0.30380
 Alpha  occ. eigenvalues --   -0.29704  -0.28869  -0.28666  -0.28238  -0.24875
 Alpha virt. eigenvalues --    0.07038   0.08787   0.09605   0.10496   0.10934
 Alpha virt. eigenvalues --    0.12281   0.12602   0.13613   0.14367   0.14804
 Alpha virt. eigenvalues --    0.15394   0.15685   0.15946   0.16510   0.17052

 Mulliken charges:
               1
     1  C   -0.227410
     2  O   -0.227150
     3  C   -0.049154
     4  C   -0.238452
     5  C    0.021758
     6  C   -0.223849
     7  C   -0.012462
     8  C   -0.230120
     9  C    0.014525
    10  C   -0.422064
    11  C    0.334067
    12  C   -0.476770
    13  C   -0.266964
    14  C   -0.254076
    15  H    0.124250
    16  H    0.100066
    17  H    0.100151
    18  H    0.084543
    19  H    0.083995
    20  H    0.100423
    21  H    0.098544
    22  H    0.074143
    23  H    0.092151
    24  H    0.090348
    25  H    0.057711
    26  H    0.088223
    27  H    0.090584
    28  H    0.059731
    29  H    0.113108
    30  H    0.111738
    31  H    0.109757
    32  H    0.108897
    33  H    0.110389
    34  H    0.107348
    35  H    0.092584
    36  H    0.087486
    37  H    0.088527
    38  H    0.083426
 Sum of Mulliken charges =  -0.00000

 Dipole moment (field-independent basis, Debye):
    X=              0.5759    Y=              0.0065    Z=             -0.7608  Tot=              0.9542
 Quadrupole moment (field-independent basis, Debye-Ang):
   XX=            -92.3082   YY=            -89.5666   ZZ=            -88.3204
   XY=             -1.0019   XZ=              4.7472   YZ=             -0.7009

  Exact polarizability: 161.953   1.795 129.361  -1.255   0.867 127.682
 Approx polarizability: 200.598  -1.009 191.902  -0.118  -0.128 195.056

                      1                      2                      3
                      A                      A                      A
 Frequencies --     39.6010                41.9276                55.7658
 Red. masses --      2.4933                 2.1309                 2.7124
 Frc consts  --      0.0023                 0.0022                 0.0050
 IR Inten    --      0.2075                 2.0450                 0.8565

                      4                      5                      6
                      A                      A                      A
 Frequencies --     67.6891               123.1007               163.6035
 Red. masses --      2.6587                 2.8760                 2.7616
 Frc consts  --      0.0072                 0.0257                 0.0436
 IR Inten    --      0.0525                 1.1223                 0.8893

                      7                      8                      9
                      A                      A                      A
 Frequencies --    206.8878               229.0103               243.8347
 Red. masses --      2.2369                 1.2684                 2.6305
 Frc consts  --      0.0564                 0.0392                 0.0921
 IR Inten    --      0.0403                 1.6404                 1.5195

                     10                     11                     12
                      A                      A                      A
 Frequencies --    260.9225               268.3144               276.3897
 Red. masses --      1.1546                 1.6214                 2.1129
 Frc consts  --      0.0463                 0.0688                 0.0951
 IR Inten    --      0.1999                 0.0865                 0.5071

                     13                     14                     15
                      A                      A                      A
 Frequencies --    320.0911               342.7919               345.0742
 Red. masses --      1.6387                 2.2476                 2.4758
 Frc consts  --      0.0989                 0.1556                 0.1737
 IR Inten    --      0.0588                 0.1190                 0.7092

                     16                     17                     18
                      A                      A                      A
 Frequencies --    381.4891               402.4154               436.1952
 Red. masses --      2.7212                 1.9131                 2.1800
 Frc consts  --      0.2333                 0.1825                 0.2444
 IR Inten    --      0.7007                 0.0130                 0.0826

                     19                     20                     21
                      A                      A                      A
 Frequencies --    452.4002               475.2021               525.2899
 Red. masses --      2.4525                 2.4378                 2.5657
 Frc consts  --      0.2957                 0.3243                 0.4171
 IR Inten    --      0.5121                 1.1070                 0.1968

                     22                     23                     24
                      A                      A                      A
 Frequencies --    582.5957               607.9670               705.2665
 Red. masses --      3.3690                 3.4788                 3.4173
 Frc consts  --      0.6737                 0.7576                 1.0015
 IR Inten    --      0.3439                 2.9061                 0.0412

                     25                     26                     27
                      A                      A                      A
 Frequencies --    754.4686               786.3830               821.5510
 Red. masses --      2.5898                 1.3554                 2.5488
 Frc consts  --      0.8686                 0.4938                 1.0136
 IR Inten    --      0.2291                 0.6087                 0.1420

                     28                     29                     30
                      A                      A                      A
 Frequencies --    837.9405               853.8494               868.3695
 Red. masses --      2.1840                 2.9209                 1.4877
 Frc consts  --      0.9035                 1.2547                 0.6610
 IR Inten    --      0.5002                 0.5213                 0.4529

                     31                     32                     33
                      A                      A                      A
 Frequencies --    890.2390               921.6540               934.2485
 Red. masses --      1.8025                 2.1004                 2.1013
 Frc consts  --      0.8416                 1.0512                 1.0806
 IR Inten    --      0.0273                 0.0817                 0.4987

                     34                     35                     36
                      A                      A                      A
 Frequencies --    962.3915               971.1568               987.7819
 Red. masses --      1.9771                 1.9984                 2.9573
 Frc consts  --      1.0789                 1.1105                 1.7001
 IR Inten    --      0.1550                 1.2798                17.8264

                     37                     38                     39
                      A                      A                      A
 Frequencies --    997.6389              1012.9084              1029.6832
 Red. masses --      1.9641                 1.7831                 1.6988
 Frc consts  --      1.1518                 1.0779                 1.0612
 IR Inten    --      5.9477                 0.8254                 1.1140

                     40                     41                     42
                      A                      A                      A
 Frequencies --   1036.1785              1062.0196              1084.1157
 Red. masses --      1.6565                 1.5086                 2.2311
 Frc consts  --      1.0479                 1.0025                 1.5450
 IR Inten    --      0.4687                 2.0144                 1.5726

                     43                     44                     45
                      A                      A                      A
 Frequencies --   1098.4174              1109.0378              1129.9932
 Red. masses --      1.6064                 2.0821                 1.6455
 Frc consts  --      1.1419                 1.5089                 1.2379
 IR Inten    --      0.1332                 0.2525                 2.4438

                     46                     47                     48
                      A                      A                      A
 Frequencies --   1157.6343              1161.5783              1161.8064
 Red. masses --      1.5483                 3.1082                 2.8366
 Frc consts  --      1.2225                 2.4709                 2.2559
 IR Inten    --      5.1334               108.2418                76.0168

                     49                     50                     51
                      A                      A                      A
 Frequencies --   1180.3434              1190.0904              1217.5541
 Red. masses --      1.5022                 1.6144                 1.7521
 Frc consts  --      1.2331                 1.3472                 1.5303
 IR Inten    --      0.6016                 3.9384                 8.3875

                     52                     53                     54
                      A                      A                      A
 Frequencies --   1219.3000              1226.1635              1235.9047
 Red. masses --      1.6795                 1.5641                 1.6287
 Frc consts  --      1.4711                 1.3855                 1.4658
 IR Inten    --     21.0809                 2.8813                16.1500

                     55                     56                     57
                      A                      A                      A
 Frequencies --   1257.7530              1268.6663              1279.0614
 Red. masses --      1.3182                 1.3794                 1.4407
 Frc consts  --      1.2286                 1.3080                 1.3887
 IR Inten    --      0.8665                 0.9053                 0.9261

                     58                     59                     60
                      A                      A                      A
 Frequencies --   1294.7348              1310.3102              1322.9635
 Red. masses --      1.4262                 1.3323                 1.3561
 Frc consts  --      1.4086                 1.3477                 1.3984
 IR Inten    --      1.6638                 1.5881                 1.2366

                     61                     62                     63
                      A                      A                      A
 Frequencies --   1330.3616              1332.9342              1349.5356
 Red. masses --      1.2818                 1.5319                 1.3673
 Frc consts  --      1.3366                 1.6036                 1.4672
 IR Inten    --      0.5234                 0.4076                 2.1334

                     64                     65                     66
                      A                      A                      A
 Frequencies --   1355.5213              1361.5430              1374.7331
 Red. masses --      1.3964                 1.4157                 1.3690
 Frc consts  --      1.5117                 1.5462                 1.5243
 IR Inten    --      2.4471                 2.8956                 1.8455

                     67                     68                     69
                      A                      A                      A
 Frequencies --   1396.8122              1402.2312              1408.1989
 Red. masses --      1.3187                 1.3495                 1.2881
 Frc consts  --      1.5159                 1.5633                 1.5050
 IR Inten    --      2.9534                 5.2711                 5.5339

                     70                     71                     72
                      A                      A                      A
 Frequencies --   1415.8569              1433.6724              1481.2970
 Red. masses --      1.2304                 1.3881                 1.1655
 Frc consts  --      1.4533                 1.6810                 1.5067
 IR Inten    --      1.1050                 9.1830                 2.0688

                     73                     74                     75
                      A                      A                      A
 Frequencies --   1484.9486              1486.5500              1487.8970
 Red. masses --      1.0470                 1.0860                 1.0889
 Frc consts  --      1.3603                 1.4140                 1.4203
 IR Inten    --      4.7795                 2.0911                 3.2464

                     76                     77                     78
                      A                      A                      A
 Frequencies --   1490.7213              1492.7971              1495.4645
 Red. masses --      1.0528                 1.0616                 1.0768
 Frc consts  --      1.3785                 1.3939                 1.4188
 IR Inten    --      3.9493                 3.4233                 2.1631

                     79                     80                     81
                      A                      A                      A
 Frequencies --   1497.8775              1505.0213              1505.3282
 Red. masses --      1.0757                 1.0593                 1.0618
 Frc consts  --      1.4219                 1.4137                 1.4176
 IR Inten    --      4.6600                 9.8675                 5.8934

                     82                     83                     84
                      A                      A                      A
 Frequencies --   1511.9646              1514.6104              1532.6411
 Red. masses --      1.0528                 1.0906                 1.0916
 Frc consts  --      1.4180                 1.4741                 1.5108
 IR Inten    --      0.1569                 5.6636                 0.5566

                     85                     86                     87
                      A                      A                      A
 Frequencies --   2951.6100              2966.3014              2979.3611
 Red. masses --      1.0488                 1.0426                 1.1031
 Frc consts  --      5.3834                 5.4050                 5.7690
 IR Inten    --     48.0040                63.9392                40.4928

                     88                     89                     90
                      A                      A                      A
 Frequencies --   3003.5859              3004.6951              3019.4432
 Red. masses --      1.1029                 1.0805                 1.0549
 Frc consts  --      5.8621                 5.7474                 5.6663
 IR Inten    --     56.7991                 5.5030                 5.3232

                     91                     92                     93
                      A                      A                      A
 Frequencies --   3022.0997              3023.1939              3026.1282
 Red. masses --      1.0537                 1.0603                 1.0400
 Frc consts  --      5.6701                 5.7096                 5.6115
 IR Inten    --     32.1569                 5.5995                19.9097

                     94                     95                     96
                      A                      A                      A
 Frequencies --   3027.9663              3029.6590              3036.2710
 Red. masses --      1.0665                 1.0660                 1.0636
 Frc consts  --      5.7614                 5.7649                 5.7773
 IR Inten    --     28.4104                66.6273                28.5343

                     97                     98                     99
                      A                      A                      A
 Frequencies --   3037.7496              3056.5687              3061.0521
 Red. masses --      1.0654                 1.0967                 1.0962
 Frc consts  --      5.7925                 6.0371                 6.0518
 IR Inten    --     31.2201                10.3191                44.0886

                    100                    101                    102
                      A                      A                      A
 Frequencies --   3064.8781              3065.3726              3079.0530
 Red. masses --      1.0933                 1.1033                 1.1024
 Frc consts  --      6.0507                 6.1081                 6.1578
 IR Inten    --     39.7121                48.0646                48.6256

                    103                    104                    105
                      A                      A                      A
 Frequencies --   3081.5064              3084.1083              3089.3793
 Red. masses --      1.1001                 1.0993                 1.1007
 Frc consts  --      6.1546                 6.1605                 6.1893
 IR Inten    --      5.6620                70.1836                37.5723

                    106                    107                    108
                      A                      A                      A
 Frequencies --   3101.2059              3104.7174              3108.7547
 Red. masses --      1.1005                 1.0995                 1.0952
 Frc consts  --      6.2362                 6.2446                 6.2362
 IR Inten    --     57.6076                20.4845                35.6037

 - Thermochemistry -
 -------------------
 Temperature   298.150 Kelvin.  Pressure   1.00000 Atm.
 Atom     1 has atomic number  6 and mass  12.00000

 Molecular mass:   196.18272 amu.
 Principal axes and moments of inertia in atomic units:
                           1         2         3
     Eigenvalues --  1431.968545502.311895549.55201
           X            0.99998   0.00411   0.00525
           Y           -0.00429   0.99941   0.03396
           Z           -0.00511  -0.03399   0.99941
 This molecule is an asymmetric top.
 Rotational symmetry number  1.
 Warning -- assumption of classical behavior for rotation
           may cause significant error
 Rotational temperatures (Kelvin)      0.06049     0.01574     0.01561
 Rotational constants (GHZ):           1.26032     0.32800     0.32520
 Zero-point vibrational energy     920292.5 (Joules/Mol)
                                  219.95519 (Kcal/Mol)
 Warning -- explicit consideration of  23 degrees of freedom as
           vibrations may cause significant error
 Vibrational temperatures:     56.98    60.32    80.23    97.39   177.11
          (Kelvin)            235.39   297.67   329.49   350.82   375.41
                              386.04   397.66   460.54   493.20   496.48
                              548.88   578.99   627.59   650.90   683.71
                              755.78   838.23   874.73  1014.72  1085.51
                             1131.43  1182.03  1205.61  1228.50  1249.39
                             1280.86  1326.05  1344.18  1384.67  1397.28
                             1421.20  1435.38  1457.35  1481.48  1490.83
                             1528.01  1559.80  1580.38  1595.66  1625.81
                             1665.58  1671.25  1671.58  1698.25  1712.27
                             1751.79  1754.30  1764.18  1778.19  1809.63
                             1825.33  1840.28  1862.83  1885.24  1903.45
                             1914.09  1917.79  1941.68  1950.29  1958.96
                             1977.93  2009.70  2017.50  2026.08  2037.10
                             2062.73  2131.26  2136.51  2138.81  2140.75
                             2144.82  2147.80  2151.64  2155.11  2165.39
                             2165.83  2175.38  2179.19  2205.13  4246.71
                             4267.85  4286.64  4321.49  4323.09  4344.31
                             4348.13  4349.70  4353.92  4356.57  4359.00
                             4368.52  4370.64  4397.72  4404.17  4409.68
                             4410.39  4430.07  4433.60  4437.34  4444.93
                             4461.94  4467.00  4472.80

 Zero-point correction=                           0.350521 (Hartree/Particle)
 Thermal correction to Energy=                    0.365489
 Thermal correction to Enthalpy=                  0.366434
 Thermal correction to Gibbs Free Energy=         0.308201
 Sum of electronic and zero-point Energies=           -584.743382
 Sum of electronic and thermal Energies=              -584.728413
 Sum of electronic and thermal Enthalpies=            -584.727469
 Sum of electronic and thermal Free Energies=         -584.785701

                     E (Thermal)             CV                S
                      KCal/Mol        Cal/Mol-Kelvin    Cal/Mol-Kelvin
 Total                  229.348             58.486            122.560
 Electronic               0.000              0.000              0.000
 Translational            0.889              2.981             41.727
 Rotational               0.889              2.981             32.147
 Vibrational            227.571             52.524             48.686
 Vibration     1          0.594              1.981              5.279
 Vibration     2          0.595              1.980              5.166
 Vibration     3          0.596              1.975              4.602
 Vibration     4          0.598              1.970              4.219
 Vibration     5          0.610              1.930              3.051
 Vibration     6          0.623              1.887              2.508
 Vibration     7          0.641              1.830              2.071
 Vibration     8          0.652              1.797              1.887
 Vibration     9          0.659              1.773              1.775
 Vibration    10          0.669              1.744              1.656
 Vibration    11          0.673              1.731              1.607
 Vibration    12          0.678              1.717              1.556
 Vibration    13          0.706              1.635              1.310
 Vibration    14          0.722              1.590              1.199
 Vibration    15          0.723              1.585              1.189
 Vibration    16          0.751              1.510              1.033
 Vibration    17          0.768              1.465              0.954
 Vibration    18          0.797              1.391              0.839
 Vibration    19          0.811              1.356              0.789
 Vibration    20          0.832              1.305              0.723
 Vibration    21          0.880              1.194              0.598
 Vibration    22          0.939              1.069              0.481
 Vibration    23          0.967              1.015              0.436

 Optimization completed.
    -- Stationary point found.
 Normal termination of Gaussian 16 at Mon May 22 14:24:44 2023.
