 Gaussian 16, Revision A.03,
 Gaussian 16:  ES64L-G16RevA.03 25-Dec-2016

 -----------------------------
 # opt freq b3lyp/6-31g(2df,p)
 -----------------------------

 -------------------
 Title Card Required
 -------------------
 Symbolic Z-matrix:
 Charge =  0 Multiplicity = 1

 SCF Done:  E(RB3LYP) =  -864.517801453     A.U. after   12 cycles
 SCF Done:  E(RB3LYP) =  -864.525996113     A.U. after   12 cycles
 SCF Done:  E(RB3LYP) =  -864.529784733     A.U. after   11 cycles
 SCF Done:  E(RB3LYP) =  -864.533218907     A.U. after   12 cycles
 SCF Done:  E(RB3LYP) =  -864.534016394     A.U. after   12 cycles
 SCF Done:  E(RB3LYP) =  -864.534564621     A.U. after   10 cycles
 SCF Done:  E(RB3LYP) =  -864.534851608     A.U. after   10 cycles
 SCF Done:  E(RB3LYP) =  -864.535219455     A.U. after   11 cycles
 SCF Done:  E(RB3LYP) =  -864.535418530     A.U. after   11 cycles
 SCF Done:  E(RB3LYP) =  -864.535146282     A.U. after   11 cycles
 SCF Done:  E(RB3LYP) =  -864.535896056     A.U. after   10 cycles
 SCF Done:  E(RB3LYP) =  -864.535896210     A.U. after    9 cycles
 SCF Done:  E(RB3LYP) =  -864.535898352     A.U. after    8 cycles
 SCF Done:  E(RB3LYP) =  -864.535905506     A.U. after    9 cycles
 SCF Done:  E(RB3LYP) =  -864.535909612     A.U. after    9 cycles
 SCF Done:  E(RB3LYP) =  -864.535907988     A.U. after    9 cycles
 SCF Done:  E(RB3LYP) =  -864.535910094     A.U. after    9 cycles
 SCF Done:  E(RB3LYP) =  -864.535910173     A.U. after    6 cycles
 SCF Done:  E(RB3LYP) =  -864.535910206     A.U. after    5 cycles
 Optimization completed.
    -- Stationary point found.
 Normal termination of Gaussian 16 at Tue May 23 07:31:16 2023.

 ----------------------------------------------------------------------
 #N Geom=AllCheck Guess=TCheck SCRF=Check GenChk RB3LYP/6-31G(2df,p) Fr
 eq
 ----------------------------------------------------------------------

 Structure from the checkpoint file:  "COCCONCCCCqCrqCrCqCrCNON.chk"
 -------------------
 Title Card Required
 -------------------
 Charge =  0 Multiplicity = 1

                         Standard orientation:
 ---------------------------------------------------------------------
 Center     Atomic      Atomic             Coordinates (Angstroms)
 Number     Number       Type             X           Y           Z
 ---------------------------------------------------------------------
      1          6           0        8.480837   -1.206946   -0.316494
      2          8           0        7.355919   -0.658307    0.325038
      3          6           0        6.320822   -0.328965   -0.572326
      4          6           0        5.174432    0.251365    0.243511
      5          8           0        4.149690    0.582068   -0.677243
      6          7           0        3.015428    1.090330    0.044762
      7          6           0        1.856690    0.277448   -0.331694
      8          6           0        0.582061    0.890401    0.252212
      9          6           0       -0.652308    0.032048   -0.059991
     10          6           0       -2.032465    0.577630    0.407069
     11          6           0       -1.989201    0.970212    1.897844
     12          6           0       -2.371754    1.830730   -0.426735
     13          6           0       -3.096656   -0.549966    0.144332
     14          6           0       -2.973707   -1.746517    1.108142
     15          6           0       -4.546985   -0.030269    0.139613
     16          7           0       -5.478974   -1.109064   -0.216227
     17          8           0       -6.807259   -0.564502   -0.245168
     18          7           0       -7.063359   -0.178557   -1.602386
     19          1           0        9.222983   -1.427845    0.454638
     20          1           0        8.920756   -0.504843   -1.042786
     21          1           0        8.233926   -2.138889   -0.849862
     22          1           0        5.975248   -1.218191   -1.124979
     23          1           0        6.661065    0.408216   -1.318358
     24          1           0        5.515365    1.139286    0.792572
     25          1           0        4.823402   -0.485091    0.978210
     26          1           0        2.888292    2.021326   -0.352655
     27          1           0        2.014671   -0.727879    0.075607
     28          1           0        1.770035    0.174647   -1.424816
     29          1           0        0.459436    1.903562   -0.152399
     30          1           0        0.713881    1.000173    1.333627
     31          1           0       -0.484747   -0.956804    0.381449
     32          1           0       -0.705126   -0.129383   -1.145356
     33          1           0       -1.348366    1.842905    2.054424
     34          1           0       -1.602141    0.161114    2.524740
     35          1           0       -2.985248    1.232376    2.268324
     36          1           0       -1.564348    2.566601   -0.372203
     37          1           0       -3.276372    2.327833   -0.066135
     38          1           0       -2.522559    1.579353   -1.482619
     39          1           0       -2.906892   -0.923878   -0.870835
     40          1           0       -3.355479   -1.500529    2.105564
     41          1           0       -1.942010   -2.085708    1.227212
     42          1           0       -3.541673   -2.602517    0.731611
     43          1           0       -4.677784    0.726860   -0.635103
     44          1           0       -4.806797    0.428515    1.107308
     45          1           0       -5.561620   -1.761858    0.559742
     46          1           0       -7.710422    0.599993   -1.482227
     47          1           0       -7.616534   -0.945403   -1.991653
 ---------------------------------------------------------------------

 SCF Done:  E(RB3LYP) =  -864.535910206     A.U. after    1 cycles

 The electronic state is 1-A.
 Alpha  occ. eigenvalues --  -19.18084 -19.15541 -19.13768 -14.35859 -14.35840
 Alpha  occ. eigenvalues --  -14.35479 -10.22229 -10.22194 -10.21629 -10.20207
 Alpha  occ. eigenvalues --  -10.19517 -10.19433 -10.18488 -10.18157 -10.17765
 Alpha  occ. eigenvalues --  -10.17328 -10.16952 -10.16896  -1.07666  -1.05498
 Alpha  occ. eigenvalues --   -1.03079  -0.88228  -0.85367  -0.82820  -0.77691
 Alpha  occ. eigenvalues --   -0.75316  -0.72910  -0.72059  -0.68440  -0.66778
 Alpha  occ. eigenvalues --   -0.65528  -0.64441  -0.60816  -0.59617  -0.57722
 Alpha  occ. eigenvalues --   -0.52311  -0.50676  -0.50211  -0.49922  -0.48980
 Alpha  occ. eigenvalues --   -0.48179  -0.47871  -0.46236  -0.45998  -0.45390
 Alpha  occ. eigenvalues --   -0.44413  -0.43950  -0.43146  -0.42667  -0.41567
 Alpha  occ. eigenvalues --   -0.41083  -0.40185  -0.39841  -0.38350  -0.37580
 Alpha  occ. eigenvalues --   -0.36947  -0.36413  -0.36206  -0.35984  -0.34640
 Alpha  occ. eigenvalues --   -0.34161  -0.33974  -0.32941  -0.31563  -0.31297
 Alpha  occ. eigenvalues --   -0.30845  -0.30376  -0.29594  -0.25768  -0.25118
 Alpha  occ. eigenvalues --   -0.24364  -0.23541  -0.22442
 Alpha virt. eigenvalues --    0.07153   0.08024   0.08638   0.09060   0.09911
 Alpha virt. eigenvalues --    0.10004   0.10340   0.10858   0.11468   0.13013
 Alpha virt. eigenvalues --    0.13194   0.13673   0.13860   0.14590   0.15217

 Mulliken charges:
               1
     1  C   -0.224169
     2  O   -0.231676
     3  C   -0.074457
     4  C   -0.038692
     5  O   -0.277236
     6  N   -0.214237
     7  C   -0.098751
     8  C   -0.231000
     9  C   -0.203311
    10  C    0.254986
    11  C   -0.421689
    12  C   -0.427301
    13  C    0.012601
    14  C   -0.432262
    15  C   -0.142347
    16  N   -0.198452
    17  O   -0.276819
    18  N   -0.359945
    19  H    0.126120
    20  H    0.103429
    21  H    0.103414
    22  H    0.092579
    23  H    0.092419
    24  H    0.098767
    25  H    0.098910
    26  H    0.231262
    27  H    0.107418
    28  H    0.092775
    29  H    0.092838
    30  H    0.114548
    31  H    0.094846
    32  H    0.093429
    33  H    0.113477
    34  H    0.111798
    35  H    0.111224
    36  H    0.107769
    37  H    0.117343
    38  H    0.114031
    39  H    0.081583
    40  H    0.114679
    41  H    0.117978
    42  H    0.122502
    43  H    0.120052
    44  H    0.085210
    45  H    0.234453
    46  H    0.247031
    47  H    0.242871
 Sum of Mulliken charges =  -0.00000

 Dipole moment (field-independent basis, Debye):
    X=             -1.1226    Y=              0.1270    Z=             -0.4725  Tot=              1.2246
 Quadrupole moment (field-independent basis, Debye-Ang):
   XX=           -100.1424   YY=           -109.1265   ZZ=           -115.0555
   XY=             -3.4838   XZ=             -4.5808   YZ=             -1.7256

  Exact polarizability: 231.488  -3.707 150.880   8.783  -2.599 144.963
 Approx polarizability: 249.282  -5.454 225.764   7.515  -2.717 225.836

                      1                      2                      3
                      A                      A                      A
 Frequencies --     15.3403                15.6775                28.8971
 Red. masses --      4.7090                 3.8922                 2.7187
 Frc consts  --      0.0007                 0.0006                 0.0013
 IR Inten    --      0.0121                 0.1598                 1.0514

                      4                      5                      6
                      A                      A                      A
 Frequencies --     41.9317                50.2494                59.9777
 Red. masses --      2.7337                 3.7146                 3.8421
 Frc consts  --      0.0028                 0.0055                 0.0081
 IR Inten    --      0.6583                 0.0382                 0.2892

                      7                      8                      9
                      A                      A                      A
 Frequencies --     68.5009                85.4516                93.7867
 Red. masses --      2.7155                 2.5494                 2.7333
 Frc consts  --      0.0075                 0.0110                 0.0142
 IR Inten    --      0.5809                 1.6261                 0.1571

                     10                     11                     12
                      A                      A                      A
 Frequencies --    110.3859               117.0234               126.6504
 Red. masses --      2.7649                 2.1758                 2.4204
 Frc consts  --      0.0198                 0.0176                 0.0229
 IR Inten    --      0.2653                 2.6400                 5.6889

                     13                     14                     15
                      A                      A                      A
 Frequencies --    131.4272               151.3587               159.0671
 Red. masses --      2.5590                 1.9752                 3.3279
 Frc consts  --      0.0260                 0.0267                 0.0496
 IR Inten    --      4.0299                 7.0766                 1.0687

                     16                     17                     18
                      A                      A                      A
 Frequencies --    172.1346               183.1480               231.7586
 Red. masses --      2.8973                 1.7705                 1.8957
 Frc consts  --      0.0506                 0.0350                 0.0600
 IR Inten    --      8.9929                20.4395                 0.9101

                     19                     20                     21
                      A                      A                      A
 Frequencies --    234.8559               243.4555               262.6730
 Red. masses --      1.4146                 1.3901                 1.4299
 Frc consts  --      0.0460                 0.0485                 0.0581
 IR Inten    --      7.7564                 0.6772                 0.1423

                     22                     23                     24
                      A                      A                      A
 Frequencies --    279.2965               295.3035               314.8653
 Red. masses --      1.4331                 1.9611                 1.7072
 Frc consts  --      0.0659                 0.1008                 0.0997
 IR Inten    --      0.4909                 0.0860                 0.9612

                     25                     26                     27
                      A                      A                      A
 Frequencies --    332.7722               352.8306               363.9384
 Red. masses --      2.9297                 3.0957                 2.4940
 Frc consts  --      0.1911                 0.2271                 0.1946
 IR Inten    --      2.2247                 0.8054                 1.7378

                     28                     29                     30
                      A                      A                      A
 Frequencies --    368.5926               383.2544               418.4185
 Red. masses --      2.5975                 2.9165                 3.3487
 Frc consts  --      0.2079                 0.2524                 0.3454
 IR Inten    --      0.4097                 1.4813                 0.6599

                     31                     32                     33
                      A                      A                      A
 Frequencies --    466.0572               488.3163               513.1925
 Red. masses --      2.6613                 3.5400                 3.1655
 Frc consts  --      0.3406                 0.4973                 0.4912
 IR Inten    --      0.3993                 0.9169                 0.3464

                     34                     35                     36
                      A                      A                      A
 Frequencies --    544.3701               558.7585               593.2427
 Red. masses --      3.8781                 2.9025                 2.8722
 Frc consts  --      0.6771                 0.5339                 0.5956
 IR Inten    --     28.2721                 1.7918                 0.6526

                     37                     38                     39
                      A                      A                      A
 Frequencies --    734.3232               752.4687               816.4410
 Red. masses --      3.0580                 1.1441                 2.0455
 Frc consts  --      0.9715                 0.3817                 0.8034
 IR Inten    --      1.1241                 1.8921                32.1642

                     40                     41                     42
                      A                      A                      A
 Frequencies --    829.9910               837.0075               856.1324
 Red. masses --      1.0983                 2.2653                 1.3763
 Frc consts  --      0.4458                 0.9351                 0.5943
 IR Inten    --      0.3955                14.9827                 3.5650

                     43                     44                     45
                      A                      A                      A
 Frequencies --    898.2446               902.9477               917.4132
 Red. masses --      2.4501                 4.6813                 1.5618
 Frc consts  --      1.1647                 2.2487                 0.7745
 IR Inten    --     33.1564                 1.7792                 1.3457

                     46                     47                     48
                      A                      A                      A
 Frequencies --    923.3905               942.8128               964.2047
 Red. masses --      2.0459                 1.5324                 2.3616
 Frc consts  --      1.0278                 0.8026                 1.2936
 IR Inten    --      8.5853                 0.1496                 8.1141

                     49                     50                     51
                      A                      A                      A
 Frequencies --    976.8442               998.7564              1010.4330
 Red. masses --      2.4735                 1.5821                 2.1849
 Frc consts  --      1.3906                 0.9298                 1.3143
 IR Inten    --     56.4133                10.0526                12.9905

                     52                     53                     54
                      A                      A                      A
 Frequencies --   1020.3150              1034.6935              1043.6654
 Red. masses --      1.8353                 1.5217                 3.3946
 Frc consts  --      1.1257                 0.9599                 2.1785
 IR Inten    --     10.7190                13.4574                 0.8951

                     55                     56                     57
                      A                      A                      A
 Frequencies --   1051.6669              1060.6656              1082.0342
 Red. masses --      2.8218                 2.6981                 3.0983
 Frc consts  --      1.8388                 1.7884                 2.1373
 IR Inten    --      2.1157                 6.9638                32.9042

                     58                     59                     60
                      A                      A                      A
 Frequencies --   1089.3472              1109.2294              1120.5202
 Red. masses --      2.2154                 2.4268                 2.4126
 Frc consts  --      1.5490                 1.7593                 1.7847
 IR Inten    --      9.5576                16.6174                 1.1019

                     61                     62                     63
                      A                      A                      A
 Frequencies --   1133.4976              1163.4498              1173.3877
 Red. masses --      2.4923                 1.4215                 5.0012
 Frc consts  --      1.8867                 1.1336                 4.0571
 IR Inten    --      7.6496                 0.3941               194.7959

                     64                     65                     66
                      A                      A                      A
 Frequencies --   1183.0698              1191.2743              1202.3277
 Red. masses --      1.8902                 1.3643                 1.4660
 Frc consts  --      1.5588                 1.1407                 1.2486
 IR Inten    --      9.2200                 1.6744                56.9519

                     67                     68                     69
                      A                      A                      A
 Frequencies --   1216.9595              1223.2042              1227.7655
 Red. masses --      1.8577                 2.1928                 1.2026
 Frc consts  --      1.6210                 1.9331                 1.0680
 IR Inten    --      9.8804                12.7946                 8.6312

                     70                     71                     72
                      A                      A                      A
 Frequencies --   1233.6474              1237.2201              1265.8027
 Red. masses --      1.8283                 2.5050                 1.5649
 Frc consts  --      1.6394                 2.2592                 1.4773
 IR Inten    --     39.6326                 7.4579                11.8852

                     73                     74                     75
                      A                      A                      A
 Frequencies --   1282.7727              1289.4408              1293.6338
 Red. masses --      1.1020                 1.3766                 1.3628
 Frc consts  --      1.0684                 1.3485                 1.3437
 IR Inten    --      0.4206                 0.5612                11.6170

                     76                     77                     78
                      A                      A                      A
 Frequencies --   1307.6663              1322.1806              1337.1554
 Red. masses --      1.1639                 1.1859                 1.1631
 Frc consts  --      1.1726                 1.2215                 1.2253
 IR Inten    --      6.7080                 2.3662                 0.4279

                     79                     80                     81
                      A                      A                      A
 Frequencies --   1352.6994              1355.9395              1362.1511
 Red. masses --      1.2193                 1.3017                 1.3292
 Frc consts  --      1.3145                 1.4101                 1.4531
 IR Inten    --      3.9991                34.4305                 0.1767

                     82                     83                     84
                      A                      A                      A
 Frequencies --   1370.8316              1384.2025              1399.9124
 Red. masses --      1.3562                 1.3593                 1.3964
 Frc consts  --      1.5015                 1.5345                 1.6124
 IR Inten    --      5.6101                 1.0210                 9.8099

                     85                     86                     87
                      A                      A                      A
 Frequencies --   1402.7425              1413.5396              1425.8433
 Red. masses --      1.3269                 1.2488                 1.2319
 Frc consts  --      1.5383                 1.4702                 1.4756
 IR Inten    --      3.5587                 7.5629                 5.5101

                     88                     89                     90
                      A                      A                      A
 Frequencies --   1438.0924              1475.4871              1477.2526
 Red. masses --      1.4673                 1.1047                 1.1345
 Frc consts  --      1.7879                 1.4170                 1.4587
 IR Inten    --      2.8388                 0.5782                10.6410

                     91                     92                     93
                      A                      A                      A
 Frequencies --   1480.2786              1482.8923              1485.2589
 Red. masses --      1.0898                 1.1757                 1.0469
 Frc consts  --      1.4069                 1.5233                 1.3607
 IR Inten    --      4.4506                 1.9658                 4.8031

                     94                     95                     96
                      A                      A                      A
 Frequencies --   1486.5271              1493.6493              1497.0253
 Red. masses --      1.0533                 1.0733                 1.0559
 Frc consts  --      1.3713                 1.4108                 1.3943
 IR Inten    --      0.6821                 0.3070                 3.4428

                     97                     98                     99
                      A                      A                      A
 Frequencies --   1501.5814              1504.9541              1508.8580
 Red. masses --      1.0728                 1.0632                 1.0609
 Frc consts  --      1.4252                 1.4188                 1.4231
 IR Inten    --      0.1898                 8.3901                 1.1422

                    100                    101                    102
                      A                      A                      A
 Frequencies --   1513.9079              1518.7215              1522.0967
 Red. masses --      1.0585                 1.0625                 1.0807
 Frc consts  --      1.4294                 1.4439                 1.4751
 IR Inten    --      4.8284                 3.0087                 7.4264

                    103                    104                    105
                      A                      A                      A
 Frequencies --   1524.9830              1526.9354              1536.7209
 Red. masses --      1.0611                 1.0862                 1.0882
 Frc consts  --      1.4539                 1.4921                 1.5140
 IR Inten    --     11.8838                 3.0670                 4.1929

                    106                    107                    108
                      A                      A                      A
 Frequencies --   1642.3328              2958.4672              2971.6747
 Red. masses --      1.0665                 1.0477                 1.0431
 Frc consts  --      1.6948                 5.4028                 5.4272
 IR Inten    --      5.7269                31.3036                71.5469

                    109                    110                    111
                      A                      A                      A
 Frequencies --   2972.5486              2981.0580              2990.7180
 Red. masses --      1.0703                 1.0680                 1.1048
 Frc consts  --      5.5722                 5.5920                 5.8224
 IR Inten    --     38.3546                38.5700                40.6197

                    112                    113                    114
                      A                      A                      A
 Frequencies --   3008.3474              3010.4705              3010.7875
 Red. masses --      1.0549                 1.0696                 1.1031
 Frc consts  --      5.6247                 5.7114                 5.8916
 IR Inten    --     46.1137                 0.8759                55.8580

                    115                    116                    117
                      A                      A                      A
 Frequencies --   3016.9618              3021.7006              3032.4947
 Red. masses --      1.0719                 1.0690                 1.0371
 Frc consts  --      5.7481                 5.7508                 5.6189
 IR Inten    --     21.8328                35.4145                14.4749

                    118                    119                    120
                      A                      A                      A
 Frequencies --   3035.0423              3039.6046              3051.7075
 Red. masses --      1.0395                 1.0381                 1.1073
 Frc consts  --      5.6414                 5.6512                 6.0760
 IR Inten    --     25.3850                10.1909                41.7508

                    121                    122                    123
                      A                      A                      A
 Frequencies --   3054.8334              3057.0276              3084.7571
 Red. masses --      1.0913                 1.0920                 1.1011
 Frc consts  --      6.0001                 6.0125                 6.1732
 IR Inten    --     32.1329                14.1641                56.0187

                    124                    125                    126
                      A                      A                      A
 Frequencies --   3098.7115              3101.0967              3102.1416
 Red. masses --      1.0996                 1.0994                 1.0997
 Frc consts  --      6.2209                 6.2291                 6.2351
 IR Inten    --     19.2472                23.8293                34.0505

                    127                    128                    129
                      A                      A                      A
 Frequencies --   3106.4655              3107.2941              3112.2615
 Red. masses --      1.0995                 1.0996                 1.0957
 Frc consts  --      6.2512                 6.2552                 6.2533
 IR Inten    --     23.5689                52.4122                32.9147

                    130                    131                    132
                      A                      A                      A
 Frequencies --   3115.1262              3116.6823              3404.6529
 Red. masses --      1.0976                 1.0916                 1.0508
 Frc consts  --      6.2755                 6.2476                 7.1767
 IR Inten    --     48.4402                12.8469                 5.4808

                    133                    134                    135
                      A                      A                      A
 Frequencies --   3442.2622              3496.2145              3515.6611
 Red. masses --      1.0751                 1.0743                 1.0913
 Frc consts  --      7.5054                 7.7367                 7.9472
 IR Inten    --      1.8737                 0.7912                 0.9787

 - Thermochemistry -
 -------------------
 Temperature   298.150 Kelvin.  Pressure   1.00000 Atm.
 Atom     1 has atomic number  6 and mass  12.00000

 Molecular mass:   263.22089 amu.
 Principal axes and moments of inertia in atomic units:
                           1         2         3
     Eigenvalues --  1427.78120********************
           X            0.99999  -0.00393  -0.00295
           Y            0.00392   0.99998  -0.00569
           Z            0.00297   0.00568   0.99998
 This molecule is an asymmetric top.
 Rotational symmetry number  1.
 Warning -- assumption of classical behavior for rotation
           may cause significant error
 Rotational temperatures (Kelvin)      0.06066     0.00386     0.00381
 Rotational constants (GHZ):           1.26402     0.08034     0.07941
 Zero-point vibrational energy    1107844.6 (Joules/Mol)
                                  264.78121 (Kcal/Mol)
 Warning -- explicit consideration of  36 degrees of freedom as
           vibrations may cause significant error
 Vibrational temperatures:     22.07    22.56    41.58    60.33    72.30
          (Kelvin)             86.29    98.56   122.95   134.94   158.82
                              168.37   182.22   189.09   217.77   228.86
                              247.66   263.51   333.45   337.91   350.28
                              377.93   401.85   424.88   453.02   478.78
                              507.64   523.63   530.32   551.42   602.01
                              670.55   702.58   738.37   783.23   803.93
                              853.54  1056.53  1082.63  1174.68  1194.17
                             1204.27  1231.78  1292.37  1299.14  1319.95
                             1328.55  1356.50  1387.28  1405.46  1436.99
                             1453.79  1468.01  1488.69  1501.60  1513.11
                             1526.06  1556.81  1567.33  1595.93  1612.18
                             1630.85  1673.94  1688.24  1702.17  1713.98
                             1729.88  1750.93  1759.92  1766.48  1774.94
                             1780.08  1821.21  1845.62  1855.22  1861.25
                             1881.44  1902.32  1923.87  1946.23  1950.89
                             1959.83  1972.32  1991.56  2014.16  2018.23
                             2033.77  2051.47  2069.09  2122.90  2125.44
                             2129.79  2133.55  2136.96  2138.78  2149.03
                             2153.89  2160.44  2165.29  2170.91  2178.18
                             2185.10  2189.96  2194.11  2196.92  2211.00
                             2362.95  4256.57  4275.58  4276.83  4289.08
                             4302.98  4328.34  4331.40  4331.85  4340.74
                             4347.55  4363.08  4366.75  4373.31  4390.73
                             4395.22  4398.38  4438.28  4458.35  4461.79
                             4463.29  4469.51  4470.70  4477.85  4481.97
                             4484.21  4898.54  4952.65  5030.27  5058.25

 Zero-point correction=                           0.421956 (Hartree/Particle)
 Thermal correction to Energy=                    0.445640
 Thermal correction to Enthalpy=                  0.446584
 Thermal correction to Gibbs Free Energy=         0.365098
 Sum of electronic and zero-point Energies=           -864.113954
 Sum of electronic and thermal Energies=              -864.090270
 Sum of electronic and thermal Enthalpies=            -864.089326
 Sum of electronic and thermal Free Energies=         -864.170812

                     E (Thermal)             CV                S
                      KCal/Mol        Cal/Mol-Kelvin    Cal/Mol-Kelvin
 Total                  279.643             83.809            171.502
 Electronic               0.000              0.000              0.000
 Translational            0.889              2.981             42.603
 Rotational               0.889              2.981             34.943
 Vibrational            277.866             77.847             93.956
 Vibration     1          0.593              1.986              7.161
 Vibration     2          0.593              1.986              7.118
 Vibration     3          0.593              1.984              5.904
 Vibration     4          0.595              1.980              5.166
 Vibration     5          0.595              1.977              4.808
 Vibration     6          0.597              1.973              4.458
 Vibration     7          0.598              1.969              4.196
 Vibration     8          0.601              1.959              3.762
 Vibration     9          0.603              1.954              3.579
 Vibration    10          0.606              1.941              3.262
 Vibration    11          0.608              1.935              3.149
 Vibration    12          0.611              1.926              2.996
 Vibration    13          0.612              1.922              2.925
 Vibration    14          0.619              1.901              2.655
 Vibration    15          0.621              1.892              2.561
 Vibration    16          0.626              1.877              2.412
 Vibration    17          0.631              1.863              2.296
 Vibration    18          0.653              1.792              1.865
 Vibration    19          0.655              1.787              1.842
 Vibration    20          0.659              1.774              1.777
 Vibration    21          0.670              1.741              1.644
 Vibration    22          0.680              1.712              1.538
 Vibration    23          0.690              1.682              1.443
 Vibration    24          0.702              1.645              1.337
 Vibration    25          0.715              1.610              1.247
 Vibration    26          0.729              1.569              1.154
 Vibration    27          0.737              1.547              1.105
 Vibration    28          0.741              1.537              1.086
 Vibration    29          0.752              1.506              1.026
 Vibration    30          0.781              1.430              0.897
 Vibration    31          0.823              1.325              0.749
 Vibration    32          0.844              1.276              0.688
 Vibration    33          0.868              1.221              0.626
 Vibration    34          0.900              1.152              0.556
 Vibration    35          0.914              1.121              0.526
 Vibration    36          0.951              1.046              0.461

                           ! Non-Optimized Parameters !
 Normal termination of Gaussian 16 at Tue May 23 12:20:09 2023.
