 Gaussian 16, Revision A.03,
 Gaussian 16:  ES64L-G16RevA.03 25-Dec-2016

 -----------------------------
 # opt freq b3lyp/6-31g(2df,p)
 -----------------------------

 -------------------
 Title Card Required
 -------------------
 Symbolic Z-matrix:
 Charge =  0 Multiplicity = 1

 SCF Done:  E(RB3LYP) =  -1052.87221840     A.U. after   13 cycles
 SCF Done:  E(RB3LYP) =  -1052.87825223     A.U. after   11 cycles
 SCF Done:  E(RB3LYP) =  -1052.87903490     A.U. after   12 cycles
 SCF Done:  E(RB3LYP) =  -1052.87912401     A.U. after   10 cycles
 SCF Done:  E(RB3LYP) =  -1052.87910537     A.U. after   10 cycles
 SCF Done:  E(RB3LYP) =  -1052.87909540     A.U. after   10 cycles
 SCF Done:  E(RB3LYP) =  -1052.87916547     A.U. after   10 cycles
 SCF Done:  E(RB3LYP) =  -1052.87918312     A.U. after    9 cycles
 SCF Done:  E(RB3LYP) =  -1052.87918655     A.U. after    9 cycles
 SCF Done:  E(RB3LYP) =  -1052.87918880     A.U. after    9 cycles
 SCF Done:  E(RB3LYP) =  -1052.87904824     A.U. after   11 cycles
 SCF Done:  E(RB3LYP) =  -1052.87909918     A.U. after   12 cycles
 SCF Done:  E(RB3LYP) =  -1052.87927284     A.U. after    7 cycles
 SCF Done:  E(RB3LYP) =  -1052.87929397     A.U. after   11 cycles
 SCF Done:  E(RB3LYP) =  -1052.87931113     A.U. after    9 cycles
 SCF Done:  E(RB3LYP) =  -1052.87931191     A.U. after    9 cycles
 SCF Done:  E(RB3LYP) =  -1052.87931245     A.U. after    8 cycles
 SCF Done:  E(RB3LYP) =  -1052.87931249     A.U. after    7 cycles
 SCF Done:  E(RB3LYP) =  -1052.87931249     A.U. after    6 cycles
 Optimization completed.
    -- Stationary point found.
 Normal termination of Gaussian 16 at Mon May 22 10:55:21 2023.

 ----------------------------------------------------------------------
 #N Geom=AllCheck Guess=TCheck SCRF=Check GenChk RB3LYP/6-31G(2df,p) Fr
 eq
 ----------------------------------------------------------------------

 Structure from the checkpoint file:  "COCCqdOrCOCCSCqCrCO.chk"
 -------------------
 Title Card Required
 -------------------
 Charge =  0 Multiplicity = 1

                         Standard orientation:
 ---------------------------------------------------------------------
 Center     Atomic      Atomic             Coordinates (Angstroms)
 Number     Number       Type             X           Y           Z
 ---------------------------------------------------------------------
      1          6           0       -7.109765   -0.021383    0.042062
      2          8           0       -5.829364    0.482504   -0.261571
      3          6           0       -4.801689   -0.351287    0.173738
      4          6           0       -3.444563    0.281811   -0.129694
      5          8           0       -3.310590    1.430127   -0.452391
      6          6           0       -2.271676   -0.687489    0.016955
      7          8           0       -1.067569    0.016643    0.022374
      8          6           0        0.069372   -0.821635    0.086921
      9          6           0        1.296291    0.080996    0.077853
     10         16           0        2.804873   -0.944152    0.211063
     11          6           0        4.103508    0.323951   -0.106327
     12          6           0        4.235195    1.358173    1.010676
     13          6           0        5.420013   -0.435677   -0.343209
     14          8           0        6.491981    0.437334   -0.661022
     15          1           0       -7.837351    0.700631   -0.334651
     16          1           0       -7.254200   -0.141501    1.127404
     17          1           0       -7.291767   -0.995678   -0.438742
     18          1           0       -4.851823   -1.351685   -0.296324
     19          1           0       -4.849752   -0.526920    1.265997
     20          1           0       -2.323647   -1.403576   -0.825150
     21          1           0       -2.403958   -1.287747    0.936124
     22          1           0        0.092966   -1.512054   -0.771132
     23          1           0        0.048815   -1.434413    1.003109
     24          1           0        1.233838    0.781588    0.913757
     25          1           0        1.323217    0.651126   -0.855050
     26          1           0        3.825309    0.821623   -1.044984
     27          1           0        4.433829    0.866601    1.968073
     28          1           0        3.329323    1.960406    1.116535
     29          1           0        5.070990    2.027989    0.787208
     30          1           0        5.274986   -1.197879   -1.121414
     31          1           0        5.718478   -0.951902    0.575700
     32          1           0        6.327009    0.802200   -1.536445
 ---------------------------------------------------------------------

 SCF Done:  E(RB3LYP) =  -1052.87931249     A.U. after    1 cycles

 The electronic state is 1-A.
 Alpha  occ. eigenvalues --  -88.86592 -19.15418 -19.15158 -19.14301 -19.13392
 Alpha  occ. eigenvalues --  -10.27338 -10.24753 -10.24610 -10.24255 -10.23359
 Alpha  occ. eigenvalues --  -10.23266 -10.21976 -10.21430 -10.17703  -7.92948
 Alpha  occ. eigenvalues --   -5.89424  -5.89095  -5.88466  -1.06316  -1.04974
 Alpha  occ. eigenvalues --   -1.03224  -1.02357  -0.82156  -0.78703  -0.76337
 Alpha  occ. eigenvalues --   -0.71988  -0.68635  -0.67478  -0.64568  -0.60968
 Alpha  occ. eigenvalues --   -0.57498  -0.54531  -0.51040  -0.50827  -0.50425
 Alpha  occ. eigenvalues --   -0.50202  -0.48988  -0.47645  -0.46560  -0.45331
 Alpha  occ. eigenvalues --   -0.44738  -0.43555  -0.41549  -0.40918  -0.40353
 Alpha  occ. eigenvalues --   -0.39582  -0.38541  -0.37926  -0.36818  -0.35713
 Alpha  occ. eigenvalues --   -0.35552  -0.33549  -0.33096  -0.32389  -0.30521
 Alpha  occ. eigenvalues --   -0.27510  -0.27298  -0.26614  -0.24896  -0.22331
 Alpha virt. eigenvalues --   -0.01505   0.03272   0.05124   0.06659   0.07721
 Alpha virt. eigenvalues --    0.09012   0.09801   0.10772   0.11838   0.12793
 Alpha virt. eigenvalues --    0.13906   0.14751   0.15160   0.15509   0.15595

 Mulliken charges:
               1
     1  C   -0.226701
     2  O   -0.210609
     3  C   -0.159616
     4  C    0.332700
     5  O   -0.255669
     6  C   -0.166978
     7  O   -0.231984
     8  C   -0.063120
     9  C   -0.206271
    10  S   -0.175139
    11  C   -0.000957
    12  C   -0.387340
    13  C   -0.077702
    14  O   -0.418169
    15  H    0.136720
    16  H    0.106931
    17  H    0.105275
    18  H    0.100630
    19  H    0.110977
    20  H    0.113365
    21  H    0.103422
    22  H    0.106144
    23  H    0.104586
    24  H    0.138870
    25  H    0.133376
    26  H    0.093281
    27  H    0.128681
    28  H    0.118950
    29  H    0.130915
    30  H    0.106592
    31  H    0.124675
    32  H    0.284167
 Sum of Mulliken charges =  -0.00000

 Dipole moment (field-independent basis, Debye):
    X=             -1.6189    Y=             -2.5931    Z=             -0.0743  Tot=              3.0579
 Quadrupole moment (field-independent basis, Debye-Ang):
   XX=            -87.8718   YY=            -96.0059   ZZ=            -88.7262
   XY=             17.4907   XZ=            -11.7410   YZ=              0.3364

  Exact polarizability: 186.120   4.595 119.147  -2.462  -1.839 104.545
 Approx polarizability: 204.051   5.616 194.727  -2.162  -9.408 164.910

                      1                      2                      3
                      A                      A                      A
 Frequencies --     15.0557                19.5098                34.0311
 Red. masses --      4.3604                 3.3441                 4.9691
 Frc consts  --      0.0006                 0.0007                 0.0034
 IR Inten    --      4.8862                 4.4118                 1.3297

                      4                      5                      6
                      A                      A                      A
 Frequencies --     38.8802                55.9310                70.8105
 Red. masses --      4.3685                 2.2430                 3.2032
 Frc consts  --      0.0039                 0.0041                 0.0095
 IR Inten    --      0.2288                 0.8593                 0.4399

                      7                      8                      9
                      A                      A                      A
 Frequencies --     82.8776                97.8457               114.7672
 Red. masses --      3.5433                 3.1542                 2.5780
 Frc consts  --      0.0143                 0.0178                 0.0200
 IR Inten    --      1.2714                 1.1902                 2.9191

                     10                     11                     12
                      A                      A                      A
 Frequencies --    131.3971               134.7235               163.5070
 Red. masses --      2.6975                 3.5409                 5.5806
 Frc consts  --      0.0274                 0.0379                 0.0879
 IR Inten    --      2.5277                 3.8882                 0.6482

                     13                     14                     15
                      A                      A                      A
 Frequencies --    181.4759               232.8388               234.6644
 Red. masses --      4.0644                 1.2093                 1.1540
 Frc consts  --      0.0789                 0.0386                 0.0374
 IR Inten    --      1.9640                 0.3317                 3.1963

                     16                     17                     18
                      A                      A                      A
 Frequencies --    244.2212               290.0678               311.4940
 Red. masses --      3.1953                 3.7253                 1.2838
 Frc consts  --      0.1123                 0.1847                 0.0734
 IR Inten    --      0.7100                 5.2835                86.5470

                     19                     20                     21
                      A                      A                      A
 Frequencies --    322.6924               357.7755               378.7619
 Red. masses --      3.1959                 5.2646                 4.0890
 Frc consts  --      0.1961                 0.3970                 0.3456
 IR Inten    --     16.3577                 1.7388                10.7536

                     22                     23                     24
                      A                      A                      A
 Frequencies --    412.3645               454.0922               467.6538
 Red. masses --      3.0882                 3.5281                 3.6786
 Frc consts  --      0.3094                 0.4286                 0.4740
 IR Inten    --      7.5831                10.1097                 2.0371

                     25                     26                     27
                      A                      A                      A
 Frequencies --    480.8848               712.4907               720.4798
 Red. masses --      2.4437                 3.7359                 4.1694
 Frc consts  --      0.3329                 1.1174                 1.2752
 IR Inten    --      4.4731                17.7772                 3.2212

                     28                     29                     30
                      A                      A                      A
 Frequencies --    777.9642               804.5814               842.1793
 Red. masses --      4.9023                 1.1465                 1.6639
 Frc consts  --      1.7481                 0.4373                 0.6953
 IR Inten    --      3.7629                 0.7968                 1.2270

                     31                     32                     33
                      A                      A                      A
 Frequencies --    879.8631               913.1622               914.7615
 Red. masses --      2.8365                 1.7623                 1.7582
 Frc consts  --      1.2938                 0.8658                 0.8668
 IR Inten    --      4.9645                 0.8825                 6.4576

                     34                     35                     36
                      A                      A                      A
 Frequencies --    960.0543              1012.3438              1027.0363
 Red. masses --      4.5971                 1.2557                 1.4884
 Frc consts  --      2.4965                 0.7582                 0.9250
 IR Inten    --     57.8569                 1.8682                 7.6721

                     37                     38                     39
                      A                      A                      A
 Frequencies --   1046.3472              1058.5093              1069.4829
 Red. masses --      3.9978                 3.1941                 2.5702
 Frc consts  --      2.5789                 2.1085                 1.7321
 IR Inten    --     35.4796               127.8595                68.7421

                     40                     41                     42
                      A                      A                      A
 Frequencies --   1082.3544              1102.5536              1112.0839
 Red. masses --      3.1519                 3.7463                 1.6274
 Frc consts  --      2.1755                 2.6832                 1.1858
 IR Inten    --     24.4656               281.4701                 0.5361

                     43                     44                     45
                      A                      A                      A
 Frequencies --   1113.8005              1174.7945              1183.4816
 Red. masses --      2.5080                 2.5367                 1.2778
 Frc consts  --      1.8331                 2.0627                 1.0545
 IR Inten    --     20.3585               129.7608                 3.4481

                     46                     47                     48
                      A                      A                      A
 Frequencies --   1194.5592              1197.7205              1213.6188
 Red. masses --      5.1802                 1.4429                 1.2589
 Frc consts  --      4.3552                 1.2195                 1.0925
 IR Inten    --    107.3227                 1.6998                 3.7112

                     49                     50                     51
                      A                      A                      A
 Frequencies --   1240.6532              1243.1403              1252.4148
 Red. masses --      1.7512                 1.3687                 1.3152
 Frc consts  --      1.5881                 1.2463                 1.2154
 IR Inten    --     25.6473                16.3518                20.1014

                     52                     53                     54
                      A                      A                      A
 Frequencies --   1270.3590              1276.8464              1300.9528
 Red. masses --      1.2420                 1.1177                 1.1006
 Frc consts  --      1.1809                 1.0736                 1.0975
 IR Inten    --     16.5820                 3.1798                 0.7845

                     55                     56                     57
                      A                      A                      A
 Frequencies --   1354.1834              1380.3581              1386.5540
 Red. masses --      1.2901                 1.3260                 1.2832
 Frc consts  --      1.3939                 1.4886                 1.4535
 IR Inten    --      2.1205                12.6744                 6.5207

                     58                     59                     60
                      A                      A                      A
 Frequencies --   1403.1437              1409.3156              1418.2241
 Red. masses --      1.2242                 1.4987                 1.2245
 Frc consts  --      1.4201                 1.7538                 1.4511
 IR Inten    --     24.1425                 5.4054                29.1525

                     61                     62                     63
                      A                      A                      A
 Frequencies --   1435.8065              1468.7804              1486.5612
 Red. masses --      1.4310                 1.0968                 1.0891
 Frc consts  --      1.7381                 1.3941                 1.4180
 IR Inten    --     18.7066                21.8399                 1.5432

                     64                     65                     66
                      A                      A                      A
 Frequencies --   1486.7350              1487.8726              1491.1688
 Red. masses --      1.0533                 1.1223                 1.0625
 Frc consts  --      1.3718                 1.4638                 1.3920
 IR Inten    --      7.2645                11.6008                 7.3669

                     67                     68                     69
                      A                      A                      A
 Frequencies --   1492.2642              1495.5814              1506.4651
 Red. masses --      1.0927                 1.0494                 1.0798
 Frc consts  --      1.4337                 1.3829                 1.4439
 IR Inten    --      0.7934                 9.0214                 1.5141

                     70                     71                     72
                      A                      A                      A
 Frequencies --   1516.5367              1529.6204              1853.1453
 Red. masses --      1.1094                 1.0969                11.8583
 Frc consts  --      1.5033                 1.5121                23.9934
 IR Inten    --      4.8674                 3.2540               121.1754

                     73                     74                     75
                      A                      A                      A
 Frequencies --   2920.4561              2931.6939              2941.3221
 Red. masses --      1.0541                 1.0649                 1.0894
 Frc consts  --      5.2973                 5.3928                 5.5531
 IR Inten    --     62.7145                19.8527                29.4098

                     76                     77                     78
                      A                      A                      A
 Frequencies --   2954.6001              2967.5796              2970.7371
 Red. masses --      1.0999                 1.0550                 1.0379
 Frc consts  --      5.6570                 5.4740                 5.3969
 IR Inten    --     66.1008                30.7552                68.0896

                     79                     80                     81
                      A                      A                      A
 Frequencies --   2999.9822              3006.5066              3012.4804
 Red. masses --      1.1051                 1.0685                 1.0795
 Frc consts  --      5.8601                 5.6902                 5.7721
 IR Inten    --     32.0671                37.5618                17.1089

                     82                     83                     84
                      A                      A                      A
 Frequencies --   3015.2966              3041.7352              3056.4550
 Red. masses --      1.1033                 1.0345                 1.0559
 Frc consts  --      5.9102                 5.6392                 5.8120
 IR Inten    --     57.3589                13.1266                16.4831

                     85                     86                     87
                      A                      A                      A
 Frequencies --   3077.6170              3112.7962              3115.6883
 Red. masses --      1.0992                 1.1079                 1.1017
 Frc consts  --      6.1342                 6.3249                 6.3014
 IR Inten    --     23.9794                15.2618                12.8097

                     88                     89                     90
                      A                      A                      A
 Frequencies --   3120.5392              3122.2305              3814.3432
 Red. masses --      1.1021                 1.0958                 1.0662
 Frc consts  --      6.3232                 6.2936                 9.1399
 IR Inten    --     21.5736                26.0170                23.1910

 - Thermochemistry -
 -------------------
 Temperature   298.150 Kelvin.  Pressure   1.00000 Atm.
 Atom     1 has atomic number  6 and mass  12.00000

 Molecular mass:   222.09258 amu.
 Principal axes and moments of inertia in atomic units:
                           1         2         3
     Eigenvalues --   646.34052********************
           X            0.99995   0.00968  -0.00147
           Y           -0.00961   0.99910   0.04140
           Z            0.00187  -0.04138   0.99914
 This molecule is an asymmetric top.
 Rotational symmetry number  1.
 Warning -- assumption of classical behavior for rotation
           may cause significant error
 Rotational temperatures (Kelvin)      0.13401     0.00608     0.00595
 Rotational constants (GHZ):           2.79225     0.12665     0.12389
 Zero-point vibrational energy     704668.0 (Joules/Mol)
                                  168.41969 (Kcal/Mol)
 Warning -- explicit consideration of  25 degrees of freedom as
           vibrations may cause significant error
 Vibrational temperatures:     21.66    28.07    48.96    55.94    80.47
          (Kelvin)            101.88   119.24   140.78   165.12   189.05
                              193.84   235.25   261.10   335.00   337.63
                              351.38   417.34   448.17   464.28   514.76
                              544.95   593.30   653.34   672.85   691.89
                             1025.12  1036.61  1119.32  1157.61  1211.71
                             1265.93  1313.84  1316.14  1381.30  1456.54
                             1477.68  1505.46  1522.96  1538.75  1557.27
                             1586.33  1600.04  1602.51  1690.27  1702.77
                             1718.70  1723.25  1746.13  1785.02  1788.60
                             1801.95  1827.76  1837.10  1871.78  1948.37
                             1986.03  1994.94  2018.81  2027.69  2040.51
                             2065.81  2113.25  2138.83  2139.08  2140.72
                             2145.46  2147.04  2151.81  2167.47  2181.96
                             2200.78  2666.26  4201.89  4218.05  4231.91
                             4251.01  4269.69  4274.23  4316.31  4325.69
                             4334.29  4338.34  4376.38  4397.56  4428.00
                             4478.62  4482.78  4489.76  4492.19  5487.99

 Zero-point correction=                           0.268394 (Hartree/Particle)
 Thermal correction to Energy=                    0.286792
 Thermal correction to Enthalpy=                  0.287737
 Thermal correction to Gibbs Free Energy=         0.217456
 Sum of electronic and zero-point Energies=          -1052.610919
 Sum of electronic and thermal Energies=             -1052.592520
 Sum of electronic and thermal Enthalpies=           -1052.591576
 Sum of electronic and thermal Free Energies=        -1052.661856

                     E (Thermal)             CV                S
                      KCal/Mol        Cal/Mol-Kelvin    Cal/Mol-Kelvin
 Total                  179.965             61.876            147.917
 Electronic               0.000              0.000              0.000
 Translational            0.889              2.981             42.096
 Rotational               0.889              2.981             33.261
 Vibrational            178.188             55.915             72.560
 Vibration     1          0.593              1.986              7.198
 Vibration     2          0.593              1.986              6.683
 Vibration     3          0.594              1.983              5.579
 Vibration     4          0.594              1.981              5.315
 Vibration     5          0.596              1.975              4.596
 Vibration     6          0.598              1.968              4.131
 Vibration     7          0.600              1.961              3.822
 Vibration     8          0.603              1.951              3.497
 Vibration     9          0.608              1.937              3.187
 Vibration    10          0.612              1.922              2.925
 Vibration    11          0.613              1.919              2.877
 Vibration    12          0.623              1.887              2.509
 Vibration    13          0.630              1.865              2.313
 Vibration    14          0.654              1.791              1.857
 Vibration    15          0.654              1.788              1.843
 Vibration    16          0.660              1.772              1.772
 Vibration    17          0.686              1.692              1.474
 Vibration    18          0.700              1.652              1.354
 Vibration    19          0.708              1.630              1.296
 Vibration    20          0.733              1.559              1.132
 Vibration    21          0.749              1.515              1.044
 Vibration    22          0.776              1.443              0.918
 Vibration    23          0.813              1.352              0.783
 Vibration    24          0.825              1.322              0.744
 Vibration    25          0.837              1.292              0.708

 Optimization completed.
    -- Stationary point found.
 Normal termination of Gaussian 16 at Mon May 22 12:24:21 2023.
