 Gaussian 16, Revision A.03,
 Gaussian 16:  ES64L-G16RevA.03 25-Dec-2016

 -----------------------------
 # opt freq b3lyp/6-31g(2df,p)
 -----------------------------

 -------------------
 Title Card Required
 -------------------
 Symbolic Z-matrix:
 Charge =  0 Multiplicity = 1

 SCF Done:  E(RB3LYP) =  -906.755285932     A.U. after   16 cycles
 SCF Done:  E(RB3LYP) =  -906.774974122     A.U. after   15 cycles
 SCF Done:  E(RB3LYP) =  -906.782419224     A.U. after   14 cycles
 SCF Done:  E(RB3LYP) =  -906.786910891     A.U. after   14 cycles
 SCF Done:  E(RB3LYP) =  -906.789284271     A.U. after   15 cycles
 SCF Done:  E(RB3LYP) =  -906.790280033     A.U. after   15 cycles
 SCF Done:  E(RB3LYP) =  -906.791176394     A.U. after   15 cycles
 SCF Done:  E(RB3LYP) =  -906.792942045     A.U. after   17 cycles
 SCF Done:  E(RB3LYP) =  -906.794725980     A.U. after   17 cycles
 SCF Done:  E(RB3LYP) =  -906.796066966     A.U. after   14 cycles
 SCF Done:  E(RB3LYP) =  -906.809333997     A.U. after   12 cycles
 SCF Done:  E(RB3LYP) =  -906.809343329     A.U. after   11 cycles
 SCF Done:  E(RB3LYP) =  -906.809346219     A.U. after   11 cycles
 SCF Done:  E(RB3LYP) =  -906.809346668     A.U. after   10 cycles
 SCF Done:  E(RB3LYP) =  -906.809346805     A.U. after    9 cycles
 SCF Done:  E(RB3LYP) =  -906.809346952     A.U. after    9 cycles
 SCF Done:  E(RB3LYP) =  -906.809347001     A.U. after    9 cycles
 SCF Done:  E(RB3LYP) =  -906.809347074     A.U. after    9 cycles
 SCF Done:  E(RB3LYP) =  -906.809347100     A.U. after    9 cycles
 Optimization completed.
    -- Stationary point found.
 Normal termination of Gaussian 16 at Mon May 29 10:43:02 2023.

 ----------------------------------------------------------------------
 #N Geom=AllCheck Guess=TCheck SCRF=Check GenChk RB3LYP/6-31G(2df,p) Fr
 eq
 ----------------------------------------------------------------------

 Structure from the checkpoint file:  "COCCqNNdNNNCNdOrCqCrOCO.chk"
 -------------------
 Title Card Required
 -------------------
 Charge =  0 Multiplicity = 1

                         Standard orientation:
 ---------------------------------------------------------------------
 Center     Atomic      Atomic             Coordinates (Angstroms)
 Number     Number       Type             X           Y           Z
 ---------------------------------------------------------------------
      1          6           0       -3.063041    3.831455    0.389524
      2          8           0       -2.406497    2.720575   -0.171626
      3          6           0       -2.890238    1.493857    0.316201
      4          6           0       -2.048114    0.366495   -0.281719
      5          7           0       -0.713281    0.404077    0.308725
      6          7           0        0.297597    0.087197   -0.538094
      7          7           0        1.241638   -0.519951    0.013659
      8          7           0        2.249649   -0.835432   -0.904929
      9          7           0        3.513963   -0.736323   -0.303955
     10          6           0        4.091999    0.593927   -0.316319
     11          7           0        5.541817    0.451325    0.035740
     12          8           0        6.004353    1.429031    0.556957
     13          6           0       -2.714972   -1.026146   -0.092229
     14          6           0       -3.942110   -1.230510   -0.979988
     15          8           0       -1.768926   -2.041832   -0.422118
     16          6           0       -1.358777   -2.884366    0.626756
     17          8           0       -0.549944   -2.260990    1.589210
     18          1           0       -2.621696    4.728145   -0.051757
     19          1           0       -2.934522    3.872830    1.482804
     20          1           0       -4.143471    3.823583    0.172267
     21          1           0       -3.952385    1.367553    0.052341
     22          1           0       -2.825132    1.457690    1.418413
     23          1           0       -1.918383    0.558412   -1.350650
     24          1           0       -0.650821   -0.090819    1.198866
     25          1           0        2.139439   -0.248428   -1.740053
     26          1           0        4.135362   -1.401693   -0.749753
     27          1           0        3.588920    1.261162    0.389973
     28          1           0        4.095781    1.072066   -1.316654
     29          1           0       -3.001494   -1.127922    0.965695
     30          1           0       -3.655124   -1.164389   -2.033938
     31          1           0       -4.722947   -0.490723   -0.784537
     32          1           0       -4.364446   -2.224035   -0.806190
     33          1           0       -0.835189   -3.710088    0.130759
     34          1           0       -2.225902   -3.272709    1.178976
     35          1           0        0.291953   -2.009439    1.172671
 ---------------------------------------------------------------------

 SCF Done:  E(RB3LYP) =  -906.809347100     A.U. after    1 cycles

 The electronic state is 1-A.
 Alpha  occ. eigenvalues --  -19.21126 -19.14523 -19.14400 -19.14102 -14.45470
 Alpha  occ. eigenvalues --  -14.39835 -14.38859 -14.38785 -14.36267 -14.36251
 Alpha  occ. eigenvalues --  -10.27484 -10.24809 -10.24384 -10.23530 -10.22751
 Alpha  occ. eigenvalues --  -10.22404 -10.18345  -1.17074  -1.08815  -1.06102
 Alpha  occ. eigenvalues --   -1.03938  -1.00243  -0.99905  -0.91301  -0.83031
 Alpha  occ. eigenvalues --   -0.78735  -0.74661  -0.72558  -0.67924  -0.66999
 Alpha  occ. eigenvalues --   -0.62955  -0.62524  -0.62231  -0.59935  -0.56487
 Alpha  occ. eigenvalues --   -0.53730  -0.52377  -0.51687  -0.50375  -0.49485
 Alpha  occ. eigenvalues --   -0.49291  -0.48931  -0.47582  -0.46862  -0.45544
 Alpha  occ. eigenvalues --   -0.44844  -0.43878  -0.42903  -0.41531  -0.41014
 Alpha  occ. eigenvalues --   -0.40629  -0.40356  -0.39531  -0.38476  -0.37346
 Alpha  occ. eigenvalues --   -0.37233  -0.34825  -0.32412  -0.30941  -0.30147
 Alpha  occ. eigenvalues --   -0.29911  -0.27279  -0.26476  -0.26125  -0.25863
 Alpha  occ. eigenvalues --   -0.23328  -0.21206
 Alpha virt. eigenvalues --   -0.09279  -0.01833   0.07809   0.08348   0.09160
 Alpha virt. eigenvalues --    0.10456   0.10700   0.11084   0.11520   0.12232
 Alpha virt. eigenvalues --    0.13185   0.13862   0.14554   0.15275   0.15533

 Mulliken charges:
               1
     1  C   -0.229229
     2  O   -0.228022
     3  C   -0.061731
     4  C    0.014451
     5  N   -0.219052
     6  N   -0.049425
     7  N   -0.116064
     8  N   -0.229752
     9  N   -0.251163
    10  C   -0.054875
    11  N    0.031626
    12  O   -0.189001
    13  C    0.088142
    14  C   -0.395270
    15  O   -0.250410
    16  C   -0.002899
    17  O   -0.405887
    18  H    0.130158
    19  H    0.106133
    20  H    0.102059
    21  H    0.087708
    22  H    0.087530
    23  H    0.110917
    24  H    0.237951
    25  H    0.217648
    26  H    0.246113
    27  H    0.144848
    28  H    0.115564
    29  H    0.079494
    30  H    0.132288
    31  H    0.118557
    32  H    0.122469
    33  H    0.108007
    34  H    0.097190
    35  H    0.303927
 Sum of Mulliken charges =  -0.00000

 Dipole moment (field-independent basis, Debye):
    X=             -3.2462    Y=              0.4365    Z=             -1.1764  Tot=              3.4803
 Quadrupole moment (field-independent basis, Debye-Ang):
   XX=           -101.4128   YY=            -97.9347   ZZ=           -101.3333
   XY=             -3.9396   XZ=            -10.5678   YZ=              2.0964

  Exact polarizability: 193.539  -6.127 140.115  -0.210   1.860 109.599
 Approx polarizability: 241.583 -16.514 192.710  -1.321   4.215 179.282

                      1                      2                      3
                      A                      A                      A
 Frequencies --     19.9987                22.9147                31.9263
 Red. masses --      7.0764                 4.8203                 4.8612
 Frc consts  --      0.0017                 0.0015                 0.0029
 IR Inten    --      0.5821                 0.2164                 0.9597

                      4                      5                      6
                      A                      A                      A
 Frequencies --     51.7611                63.4711                73.5836
 Red. masses --      3.7335                 4.0347                 4.9457
 Frc consts  --      0.0059                 0.0096                 0.0158
 IR Inten    --      1.9028                 1.4593                 0.1671

                      7                      8                      9
                      A                      A                      A
 Frequencies --     81.2995                83.7375                95.4499
 Red. masses --      2.3904                 2.9238                 4.7455
 Frc consts  --      0.0093                 0.0121                 0.0255
 IR Inten    --      7.5434                 1.3322                 0.2139

                     10                     11                     12
                      A                      A                      A
 Frequencies --    135.8197               158.4484               170.1392
 Red. masses --      5.1742                 3.6299                 3.4969
 Frc consts  --      0.0562                 0.0537                 0.0596
 IR Inten    --      0.9297                 1.8275                 1.7659

                     13                     14                     15
                      A                      A                      A
 Frequencies --    206.5074               217.0538               228.9639
 Red. masses --      1.1894                 5.1196                 1.3667
 Frc consts  --      0.0299                 0.1421                 0.0422
 IR Inten    --      0.2771                 1.1681                 2.9821

                     16                     17                     18
                      A                      A                      A
 Frequencies --    238.3467               243.8782               270.9281
 Red. masses --      4.5619                 4.7008                 2.3830
 Frc consts  --      0.1527                 0.1647                 0.1031
 IR Inten    --      8.5992                 9.2207                 3.1730

                     19                     20                     21
                      A                      A                      A
 Frequencies --    311.1454               322.0758               353.9222
 Red. masses --      3.5289                 4.0978                 4.4216
 Frc consts  --      0.2013                 0.2504                 0.3263
 IR Inten    --      4.6661                 5.8126                 6.2565

                     22                     23                     24
                      A                      A                      A
 Frequencies --    364.0476               373.1904               426.6180
 Red. masses --      3.5372                 4.3947                 3.3393
 Frc consts  --      0.2762                 0.3606                 0.3581
 IR Inten    --      4.0309                10.2228                29.2626

                     25                     26                     27
                      A                      A                      A
 Frequencies --    464.5028               494.8354               551.8218
 Red. masses --      3.6657                 3.1994                 3.3290
 Frc consts  --      0.4660                 0.4616                 0.5973
 IR Inten    --      7.3698                10.3007                12.0515

                     28                     29                     30
                      A                      A                      A
 Frequencies --    572.4176               596.2469               615.4787
 Red. masses --      3.5608                 3.4423                 3.4328
 Frc consts  --      0.6874                 0.7210                 0.7662
 IR Inten    --      4.5815                12.2930                31.7238

                     31                     32                     33
                      A                      A                      A
 Frequencies --    650.6824               684.9209               750.5555
 Red. masses --      3.4933                 1.2839                 1.8333
 Frc consts  --      0.8714                 0.3549                 0.6085
 IR Inten    --     32.2794               217.3510               111.5883

                     34                     35                     36
                      A                      A                      A
 Frequencies --    804.6445               838.2853               849.6824
 Red. masses --      1.7418                 1.8270                 2.4433
 Frc consts  --      0.6644                 0.7564                 1.0393
 IR Inten    --     60.6364                25.3828                59.5647

                     37                     38                     39
                      A                      A                      A
 Frequencies --    861.7539               918.1761               952.0094
 Red. masses --      1.9565                 1.8340                 1.7810
 Frc consts  --      0.8560                 0.9110                 0.9511
 IR Inten    --     19.1176                 8.0812                20.8520

                     40                     41                     42
                      A                      A                      A
 Frequencies --    972.2097               983.8468              1047.0691
 Red. masses --      2.5182                 2.9962                 2.9593
 Frc consts  --      1.4024                 1.7088                 1.9116
 IR Inten    --     18.8391                 9.8036                32.7756

                     43                     44                     45
                      A                      A                      A
 Frequencies --   1054.9125              1063.7227              1100.3211
 Red. masses --      7.7289                 1.8040                 2.6096
 Frc consts  --      5.0676                 1.2027                 1.8615
 IR Inten    --    176.9295                59.7959                 6.5090

                     46                     47                     48
                      A                      A                      A
 Frequencies --   1119.5108              1123.9322              1138.5134
 Red. masses --      3.3245                 2.2901                 2.0561
 Frc consts  --      2.4549                 1.7044                 1.5703
 IR Inten    --    118.9134                53.4748                 9.3513

                     49                     50                     51
                      A                      A                      A
 Frequencies --   1142.8032              1162.9100              1168.1550
 Red. masses --      2.1369                 3.2717                 2.3759
 Frc consts  --      1.6443                 2.6068                 1.9102
 IR Inten    --     81.9437               189.4302                46.7849

                     52                     53                     54
                      A                      A                      A
 Frequencies --   1174.3048              1179.6089              1188.0682
 Red. masses --      3.1437                 3.4776                 1.5071
 Frc consts  --      2.5542                 2.8511                 1.2533
 IR Inten    --     53.1430                26.0433                15.5318

                     55                     56                     57
                      A                      A                      A
 Frequencies --   1212.0002              1228.2814              1252.4649
 Red. masses --      1.6819                 1.6840                 1.8897
 Frc consts  --      1.4556                 1.4968                 1.7465
 IR Inten    --     33.4992                45.0892                25.7873

                     58                     59                     60
                      A                      A                      A
 Frequencies --   1261.6940              1298.6035              1307.7297
 Red. masses --      1.3930                 1.2163                 1.4885
 Frc consts  --      1.3065                 1.2085                 1.4998
 IR Inten    --      4.0345                 5.3773                 3.1226

                     61                     62                     63
                      A                      A                      A
 Frequencies --   1330.3578              1345.4419              1372.3863
 Red. masses --      1.3328                 1.4091                 1.3223
 Frc consts  --      1.3898                 1.5029                 1.4673
 IR Inten    --     10.8705                32.4232                11.2592

                     64                     65                     66
                      A                      A                      A
 Frequencies --   1395.0281              1410.6533              1417.7671
 Red. masses --      1.2131                 1.2637                 1.2281
 Frc consts  --      1.3910                 1.4816                 1.4544
 IR Inten    --      7.0360                10.2357                12.3235

                     67                     68                     69
                      A                      A                      A
 Frequencies --   1426.9825              1450.5559              1461.6007
 Red. masses --      1.3557                 1.1571                 1.1522
 Frc consts  --      1.6265                 1.4345                 1.4502
 IR Inten    --     15.4518                23.0537                 8.6864

                     70                     71                     72
                      A                      A                      A
 Frequencies --   1478.6280              1479.2976              1485.8424
 Red. masses --      1.2236                 1.1416                 1.0469
 Frc consts  --      1.5761                 1.4719                 1.3618
 IR Inten    --      3.4248                 7.4700                 5.1180

                     73                     74                     75
                      A                      A                      A
 Frequencies --   1486.9391              1494.6214              1500.1118
 Red. masses --      1.0657                 1.0551                 1.0742
 Frc consts  --      1.3882                 1.3886                 1.4242
 IR Inten    --      2.5183                 3.2106                12.0797

                     76                     77                     78
                      A                      A                      A
 Frequencies --   1506.7979              1510.4819              1521.8154
 Red. masses --      1.1875                 1.0977                 1.1110
 Frc consts  --      1.5885                 1.4756                 1.5160
 IR Inten    --      6.6276                 0.3348                 3.8954

                     79                     80                     81
                      A                      A                      A
 Frequencies --   1537.0238              1582.6090              1688.6878
 Red. masses --      1.5311                 2.9176                14.2813
 Frc consts  --      2.1312                 4.3054                23.9948
 IR Inten    --      2.2233                41.5928               104.2785

                     82                     83                     84
                      A                      A                      A
 Frequencies --   2908.0217              2945.8272              2968.1515
 Red. masses --      1.0682                 1.0604                 1.0411
 Frc consts  --      5.3224                 5.4217                 5.4040
 IR Inten    --     48.5656                33.5467                72.2182

                     85                     86                     87
                      A                      A                      A
 Frequencies --   2987.5080              2990.1994              3005.4675
 Red. masses --      1.0817                 1.0934                 1.0581
 Frc consts  --      5.6882                 5.7601                 5.6311
 IR Inten    --     20.9292                71.9320                84.5170

                     88                     89                     90
                      A                      A                      A
 Frequencies --   3011.0534              3044.3470              3063.4358
 Red. masses --      1.1028                 1.0353                 1.1083
 Frc consts  --      5.8908                 5.6531                 6.1280
 IR Inten    --     49.8745                21.6995                38.3810

                     91                     92                     93
                      A                      A                      A
 Frequencies --   3086.0938              3086.6806              3116.0205
 Red. masses --      1.0906                 1.0845                 1.0956
 Frc consts  --      6.1200                 6.0879                 6.2675
 IR Inten    --      8.6369                10.3824                28.2569

                     94                     95                     96
                      A                      A                      A
 Frequencies --   3117.8526              3122.0798              3340.7219
 Red. masses --      1.1021                 1.1010                 1.0725
 Frc consts  --      6.3123                 6.3231                 7.0524
 IR Inten    --     20.9085                25.0288                 5.6258

                     97                     98                     99
                      A                      A                      A
 Frequencies --   3450.2749              3543.8240              3649.3449
 Red. masses --      1.0734                 1.0747                 1.0671
 Frc consts  --      7.5284                 7.9523                 8.3728
 IR Inten    --     25.0034                 8.7463               179.3824

 - Thermochemistry -
 -------------------
 Temperature   298.150 Kelvin.  Pressure   1.00000 Atm.
 Atom     1 has atomic number  6 and mass  12.00000

 Molecular mass:   250.13895 amu.
 Principal axes and moments of inertia in atomic units:
                           1         2         3
     Eigenvalues --  3120.554588857.41236**********
           X            0.99993  -0.01124  -0.00388
           Y            0.01127   0.99991   0.00730
           Z            0.00379  -0.00734   0.99997
 This molecule is an asymmetric top.
 Rotational symmetry number  1.
 Warning -- assumption of classical behavior for rotation
           may cause significant error
 Rotational temperatures (Kelvin)      0.02776     0.00978     0.00774
 Rotational constants (GHZ):           0.57834     0.20375     0.16131
 Zero-point vibrational energy     757549.8 (Joules/Mol)
                                  181.05875 (Kcal/Mol)
 Warning -- explicit consideration of  30 degrees of freedom as
           vibrations may cause significant error
 Vibrational temperatures:     28.77    32.97    45.93    74.47    91.32
          (Kelvin)            105.87   116.97   120.48   137.33   195.41
                              227.97   244.79   297.12   312.29   329.43
                              342.93   350.89   389.81   447.67   463.40
                              509.22   523.78   536.94   613.81   668.32
                              711.96   793.95   823.58   857.87   885.54
                              936.19   985.45  1079.88  1157.70  1206.11
                             1222.50  1239.87  1321.05  1369.73  1398.79
                             1415.54  1506.50  1517.78  1530.46  1583.12
                             1610.73  1617.09  1638.07  1644.24  1673.17
                             1680.71  1689.56  1697.19  1709.37  1743.80
                             1767.22  1802.02  1815.30  1868.40  1881.53
                             1914.09  1935.79  1974.56  2007.13  2029.62
                             2039.85  2053.11  2087.03  2102.92  2127.42
                             2128.38  2137.80  2139.37  2150.43  2158.33
                             2167.95  2173.25  2189.55  2211.43  2277.02
                             2429.65  4183.99  4238.39  4270.51  4298.36
                             4302.23  4324.20  4332.23  4380.14  4407.60
                             4440.20  4441.04  4483.26  4485.89  4491.98
                             4806.55  4964.18  5098.77  5250.59

 Zero-point correction=                           0.288535 (Hartree/Particle)
 Thermal correction to Energy=                    0.308276
 Thermal correction to Enthalpy=                  0.309220
 Thermal correction to Gibbs Free Energy=         0.236944
 Sum of electronic and zero-point Energies=           -906.520812
 Sum of electronic and thermal Energies=              -906.501071
 Sum of electronic and thermal Enthalpies=            -906.500127
 Sum of electronic and thermal Free Energies=         -906.572403

                     E (Thermal)             CV                S
                      KCal/Mol        Cal/Mol-Kelvin    Cal/Mol-Kelvin
 Total                  193.446             69.097            152.117
 Electronic               0.000              0.000              0.000
 Translational            0.889              2.981             42.451
 Rotational               0.889              2.981             34.091
 Vibrational            191.669             63.135             75.575
 Vibration     1          0.593              1.986              6.634
 Vibration     2          0.593              1.985              6.364
 Vibration     3          0.594              1.983              5.706
 Vibration     4          0.596              1.977              4.749
 Vibration     5          0.597              1.972              4.346
 Vibration     6          0.599              1.966              4.055
 Vibration     7          0.600              1.962              3.859
 Vibration     8          0.601              1.960              3.801
 Vibration     9          0.603              1.952              3.545
 Vibration    10          0.614              1.918              2.862
 Vibration    11          0.621              1.893              2.568
 Vibration    12          0.625              1.879              2.434
 Vibration    13          0.641              1.831              2.074
 Vibration    14          0.646              1.815              1.984
 Vibration    15          0.652              1.797              1.887
 Vibration    16          0.656              1.782              1.815
 Vibration    17          0.659              1.773              1.774
 Vibration    18          0.675              1.727              1.590
 Vibration    19          0.700              1.652              1.356
 Vibration    20          0.707              1.631              1.300
 Vibration    21          0.730              1.567              1.149
 Vibration    22          0.738              1.546              1.105
 Vibration    23          0.745              1.527              1.067
 Vibration    24          0.788              1.412              0.870
 Vibration    25          0.822              1.329              0.753
 Vibration    26          0.850              1.261              0.671
 Vibration    27          0.907              1.136              0.540
 Vibration    28          0.929              1.091              0.500
 Vibration    29          0.954              1.040              0.456
 Vibration    30          0.975              0.999              0.424

 Optimization completed.
    -- Stationary point found.
 Normal termination of Gaussian 16 at Mon May 29 13:31:17 2023.
