 Gaussian 16, Revision A.03,
 Gaussian 16:  ES64L-G16RevA.03 25-Dec-2016

 -----------------------------
 # opt freq b3lyp/6-31g(2df,p)
 -----------------------------

 -------------------
 Title Card Required
 -------------------
 Symbolic Z-matrix:
 Charge =  0 Multiplicity = 1

 SCF Done:  E(RB3LYP) =  -810.676876852     A.U. after   13 cycles
 SCF Done:  E(RB3LYP) =  -810.694039080     A.U. after   12 cycles
 SCF Done:  E(RB3LYP) =  -810.699952026     A.U. after   11 cycles
 SCF Done:  E(RB3LYP) =  -810.702933189     A.U. after   11 cycles
 SCF Done:  E(RB3LYP) =  -810.706501595     A.U. after   11 cycles
 SCF Done:  E(RB3LYP) =  -810.710456146     A.U. after   11 cycles
 SCF Done:  E(RB3LYP) =  -810.710496421     A.U. after   12 cycles
 SCF Done:  E(RB3LYP) =  -810.712914475     A.U. after   11 cycles
 SCF Done:  E(RB3LYP) =  -810.713313948     A.U. after   10 cycles
 SCF Done:  E(RB3LYP) =  -810.713656054     A.U. after   11 cycles
 SCF Done:  E(RB3LYP) =  -810.713825559     A.U. after    9 cycles
 SCF Done:  E(RB3LYP) =  -810.713849328     A.U. after    9 cycles
 SCF Done:  E(RB3LYP) =  -810.713858083     A.U. after    9 cycles
 SCF Done:  E(RB3LYP) =  -810.713864393     A.U. after    9 cycles
 SCF Done:  E(RB3LYP) =  -810.713866325     A.U. after    9 cycles
 SCF Done:  E(RB3LYP) =  -810.713868127     A.U. after    9 cycles
 SCF Done:  E(RB3LYP) =  -810.713869183     A.U. after    9 cycles
 SCF Done:  E(RB3LYP) =  -810.713869492     A.U. after    7 cycles
 SCF Done:  E(RB3LYP) =  -810.713869594     A.U. after    7 cycles
 Optimization completed.
    -- Stationary point found.
 Normal termination of Gaussian 16 at Mon May 29 07:50:57 2023.

 ----------------------------------------------------------------------
 #N Geom=AllCheck Guess=TCheck SCRF=Check GenChk RB3LYP/6-31G(2df,p) Fr
 eq
 ----------------------------------------------------------------------

 Structure from the checkpoint file:  "COCCC1CCdCqCrCOCCqCOrC1O.chk"
 -------------------
 Title Card Required
 -------------------
 Charge =  0 Multiplicity = 1

                         Standard orientation:
 ---------------------------------------------------------------------
 Center     Atomic      Atomic             Coordinates (Angstroms)
 Number     Number       Type             X           Y           Z
 ---------------------------------------------------------------------
      1          6           0       -5.015386   -0.458987   -0.763301
      2          8           0       -4.059869   -0.993425    0.117619
      3          6           0       -2.786720   -0.389411   -0.022339
      4          6           0       -1.854903   -1.083635    0.967925
      5          6           0       -0.355390   -0.698287    0.958527
      6          6           0       -0.092528    0.702068    1.603823
      7          6           0       -0.428107    1.912533    0.773406
      8          6           0        0.424683    2.688692    0.094946
      9          6           0       -0.050455    3.869814   -0.710423
     10          6           0        1.925517    2.438423    0.060388
     11          8           0        2.287192    1.323199   -0.748308
     12          6           0        2.692890    0.140074   -0.081099
     13          6           0        1.839005   -1.068646   -0.489392
     14          6           0        2.321849   -2.315698    0.267417
     15          8           0        3.672635   -2.648477   -0.021829
     16          6           0        0.299793   -0.864632   -0.441413
     17          8           0       -0.311739   -1.918395   -1.194963
     18          1           0       -5.956536   -0.986888   -0.588484
     19          1           0       -4.723444   -0.593448   -1.817299
     20          1           0       -5.177333    0.617968   -0.591291
     21          1           0       -2.866698    0.690349    0.176733
     22          1           0       -2.417527   -0.514301   -1.050244
     23          1           0       -1.951705   -2.156659    0.774921
     24          1           0       -2.244595   -0.924534    1.980616
     25          1           0        0.116400   -1.415804    1.644814
     26          1           0        0.952033    0.751721    1.920350
     27          1           0       -0.683384    0.736000    2.528049
     28          1           0       -1.482804    2.175606    0.728352
     29          1           0       -1.135269    3.992748   -0.656004
     30          1           0        0.230180    3.759256   -1.765825
     31          1           0        0.415208    4.801297   -0.362507
     32          1           0        2.322079    2.312365    1.076875
     33          1           0        2.425947    3.314471   -0.369127
     34          1           0        2.672698    0.276517    1.007708
     35          1           0        3.735529   -0.074703   -0.344604
     36          1           0        2.032296   -1.251424   -1.556334
     37          1           0        1.660930   -3.170991    0.054692
     38          1           0        2.294870   -2.151010    1.350335
     39          1           0        3.732617   -2.829063   -0.965938
     40          1           0        0.089006    0.034355   -1.025554
     41          1           0       -0.267746   -2.730886   -0.681180
 ---------------------------------------------------------------------

 SCF Done:  E(RB3LYP) =  -810.713869594     A.U. after    1 cycles

 The electronic state is 1-A.
 Alpha  occ. eigenvalues --  -19.14051 -19.13620 -19.13618 -19.13041 -10.23295
 Alpha  occ. eigenvalues --  -10.23031 -10.22806 -10.22464 -10.21710 -10.21554
 Alpha  occ. eigenvalues --  -10.19505 -10.18820 -10.18755 -10.18531 -10.18047
 Alpha  occ. eigenvalues --  -10.17924 -10.17732  -1.02675  -1.02349  -1.02097
 Alpha  occ. eigenvalues --   -1.01600  -0.82241  -0.80589  -0.77583  -0.73786
 Alpha  occ. eigenvalues --   -0.70885  -0.69494  -0.66975  -0.65380  -0.64008
 Alpha  occ. eigenvalues --   -0.61453  -0.58953  -0.55894  -0.52636  -0.51113
 Alpha  occ. eigenvalues --   -0.50046  -0.48587  -0.48142  -0.47746  -0.47183
 Alpha  occ. eigenvalues --   -0.45648  -0.44744  -0.44454  -0.43437  -0.42808
 Alpha  occ. eigenvalues --   -0.42000  -0.41536  -0.40645  -0.40178  -0.39484
 Alpha  occ. eigenvalues --   -0.38383  -0.37209  -0.36869  -0.35566  -0.34585
 Alpha  occ. eigenvalues --   -0.33970  -0.33367  -0.33009  -0.32533  -0.31248
 Alpha  occ. eigenvalues --   -0.30681  -0.30200  -0.27918  -0.26352  -0.25082
 Alpha  occ. eigenvalues --   -0.24622  -0.23245
 Alpha virt. eigenvalues --    0.00879   0.05839   0.06828   0.07867   0.08577
 Alpha virt. eigenvalues --    0.10314   0.10776   0.11340   0.12420   0.13972
 Alpha virt. eigenvalues --    0.14063   0.14625   0.14717   0.15290   0.15381

 Mulliken charges:
               1
     1  C   -0.227383
     2  O   -0.232152
     3  C   -0.053174
     4  C   -0.204054
     5  C   -0.071425
     6  C   -0.275874
     7  C   -0.128376
     8  C    0.318218
     9  C   -0.483207
    10  C   -0.185532
    11  O   -0.254495
    12  C   -0.086263
    13  C   -0.032739
    14  C   -0.078891
    15  O   -0.420914
    16  C    0.081195
    17  O   -0.438020
    18  H    0.122380
    19  H    0.103675
    20  H    0.097552
    21  H    0.078881
    22  H    0.110101
    23  H    0.095040
    24  H    0.096337
    25  H    0.073845
    26  H    0.094670
    27  H    0.101076
    28  H    0.084717
    29  H    0.118617
    30  H    0.133676
    31  H    0.122704
    32  H    0.103803
    33  H    0.100295
    34  H    0.092527
    35  H    0.108989
    36  H    0.080605
    37  H    0.072698
    38  H    0.111888
    39  H    0.284053
    40  H    0.106078
    41  H    0.278876
 Sum of Mulliken charges =  -0.00000

 Dipole moment (field-independent basis, Debye):
    X=             -0.0054    Y=              0.7666    Z=              0.4176  Tot=              0.8730
 Quadrupole moment (field-independent basis, Debye-Ang):
   XX=           -109.8500   YY=            -99.8040   ZZ=           -105.0315
   XY=             -1.9383   XZ=              0.3593   YZ=              2.3093

  Exact polarizability: 174.241   1.997 165.606  -3.451  -7.144 127.677
 Approx polarizability: 226.166   8.851 226.291  -9.795 -13.418 210.506

                      1                      2                      3
                      A                      A                      A
 Frequencies --     14.2933                50.1572                60.8406
 Red. masses --      3.5718                 3.6521                 2.0974
 Frc consts  --      0.0004                 0.0054                 0.0046
 IR Inten    --      0.7054                 0.0376                 1.5212

                      4                      5                      6
                      A                      A                      A
 Frequencies --     68.8182                89.1359                99.3204
 Red. masses --      4.0831                 3.9319                 3.1269
 Frc consts  --      0.0114                 0.0184                 0.0182
 IR Inten    --      0.7624                 2.4081                 3.1598

                      7                      8                      9
                      A                      A                      A
 Frequencies --    122.5398               140.3779               149.5031
 Red. masses --      3.3927                 2.8864                 2.9400
 Frc consts  --      0.0300                 0.0335                 0.0387
 IR Inten    --      3.4294                 1.0930                 1.5343

                     10                     11                     12
                      A                      A                      A
 Frequencies --    165.9276               183.4346               207.4437
 Red. masses --      3.5334                 3.8650                 1.2027
 Frc consts  --      0.0573                 0.0766                 0.0305
 IR Inten    --      1.2841                 4.1093                 0.1842

                     13                     14                     15
                      A                      A                      A
 Frequencies --    230.5931               232.7089               249.6428
 Red. masses --      1.2689                 2.8921                 3.4213
 Frc consts  --      0.0398                 0.0923                 0.1256
 IR Inten    --      0.9636                 3.6664                 3.0629

                     16                     17                     18
                      A                      A                      A
 Frequencies --    251.9740               294.8368               295.7975
 Red. masses --      2.6953                 1.3695                 1.9370
 Frc consts  --      0.1008                 0.0701                 0.0999
 IR Inten    --      2.8430               100.1387                46.7400

                     19                     20                     21
                      A                      A                      A
 Frequencies --    308.2612               338.1089               345.0035
 Red. masses --      3.0367                 1.9088                 2.0228
 Frc consts  --      0.1700                 0.1286                 0.1419
 IR Inten    --      4.9489                23.7676                56.8779

                     22                     23                     24
                      A                      A                      A
 Frequencies --    367.8372               377.1892               424.7115
 Red. masses --      2.3004                 3.4956                 2.7641
 Frc consts  --      0.1834                 0.2930                 0.2938
 IR Inten    --      0.4331                15.5605                 5.8621

                     25                     26                     27
                      A                      A                      A
 Frequencies --    451.8580               485.5944               495.5417
 Red. masses --      2.2989                 3.3499                 3.0878
 Frc consts  --      0.2766                 0.4654                 0.4467
 IR Inten    --      9.2019                15.6711                 3.9898

                     28                     29                     30
                      A                      A                      A
 Frequencies --    508.1054               548.6549               567.3244
 Red. masses --      2.3985                 3.5714                 3.7621
 Frc consts  --      0.3648                 0.6334                 0.7134
 IR Inten    --      2.5896                 2.5412                 3.2917

                     31                     32                     33
                      A                      A                      A
 Frequencies --    630.2554               665.8781               773.0036
 Red. masses --      3.4135                 2.9570                 1.9439
 Frc consts  --      0.7989                 0.7725                 0.6844
 IR Inten    --      5.0934                 3.2275                 4.3904

                     34                     35                     36
                      A                      A                      A
 Frequencies --    791.8516               810.2353               849.5153
 Red. masses --      1.5820                 2.6358                 2.4749
 Frc consts  --      0.5844                 1.0195                 1.0523
 IR Inten    --      7.0934                 6.6708                 2.2910

                     37                     38                     39
                      A                      A                      A
 Frequencies --    884.7683               905.9053               921.6730
 Red. masses --      1.6163                 1.5463                 1.9631
 Frc consts  --      0.7455                 0.7476                 0.9825
 IR Inten    --      7.9940                27.9469                 4.2331

                     40                     41                     42
                      A                      A                      A
 Frequencies --    937.8383               964.9051               983.2619
 Red. masses --      2.4647                 2.1996                 2.3593
 Frc consts  --      1.2772                 1.2066                 1.3439
 IR Inten    --     10.4378                 4.5041                11.8848

                     43                     44                     45
                      A                      A                      A
 Frequencies --    989.3851              1014.8121              1024.3755
 Red. masses --      3.3015                 1.9306                 1.9982
 Frc consts  --      1.9041                 1.1714                 1.2354
 IR Inten    --     25.7343                 9.7210                17.5020

                     46                     47                     48
                      A                      A                      A
 Frequencies --   1037.8669              1050.5772              1071.3663
 Red. masses --      3.8541                 3.0381                 1.6651
 Frc consts  --      2.4460                 1.9756                 1.1261
 IR Inten    --     94.3323                26.3103                 7.0171

                     49                     50                     51
                      A                      A                      A
 Frequencies --   1074.8095              1090.7997              1103.9893
 Red. masses --      3.5594                 2.1747                 2.7979
 Frc consts  --      2.4227                 1.5245                 2.0092
 IR Inten    --     56.5124                 7.2733                22.3530

                     52                     53                     54
                      A                      A                      A
 Frequencies --   1114.2271              1133.0836              1139.7291
 Red. masses --      2.0818                 1.8471                 2.4216
 Frc consts  --      1.5227                 1.3972                 1.8534
 IR Inten    --      3.2377                12.5050                64.0745

                     55                     56                     57
                      A                      A                      A
 Frequencies --   1157.7446              1160.5790              1183.2819
 Red. masses --      4.1727                 4.5336                 1.3350
 Frc consts  --      3.2952                 3.5978                 1.1013
 IR Inten    --    205.3410                95.5683                 1.8247

                     58                     59                     60
                      A                      A                      A
 Frequencies --   1190.8995              1207.5970              1218.7090
 Red. masses --      1.4804                 1.5551                 1.4288
 Frc consts  --      1.2370                 1.3361                 1.2503
 IR Inten    --      7.5511                 5.6113                 9.6544

                     61                     62                     63
                      A                      A                      A
 Frequencies --   1225.0479              1255.5366              1265.1025
 Red. masses --      1.6879                 1.3530                 1.2492
 Frc consts  --      1.4924                 1.2567                 1.1780
 IR Inten    --     36.6176                12.8475                15.0176

                     64                     65                     66
                      A                      A                      A
 Frequencies --   1278.9629              1294.3674              1297.2285
 Red. masses --      1.2822                 1.3785                 1.2303
 Frc consts  --      1.2358                 1.3607                 1.2198
 IR Inten    --      4.2146                11.3683                13.4627

                     67                     68                     69
                      A                      A                      A
 Frequencies --   1309.8244              1323.8288              1341.0184
 Red. masses --      1.2672                 1.1132                 1.3265
 Frc consts  --      1.2810                 1.1495                 1.4055
 IR Inten    --      5.3123                 2.6457                 6.6522

                     70                     71                     72
                      A                      A                      A
 Frequencies --   1349.5625              1361.8237              1364.3589
 Red. masses --      1.2376                 1.2706                 1.3145
 Frc consts  --      1.3281                 1.3884                 1.4416
 IR Inten    --      5.0250                 5.6468                11.4142

                     73                     74                     75
                      A                      A                      A
 Frequencies --   1388.2683              1397.7991              1400.9832
 Red. masses --      1.2837                 1.2716                 1.3620
 Frc consts  --      1.4577                 1.4639                 1.5750
 IR Inten    --      2.0581                11.7720                 4.5160

                     76                     77                     78
                      A                      A                      A
 Frequencies --   1406.9036              1411.9925              1419.5304
 Red. masses --      1.3165                 1.2604                 1.3166
 Frc consts  --      1.5353                 1.4806                 1.5631
 IR Inten    --      2.9466                 2.0203                 7.5344

                     79                     80                     81
                      A                      A                      A
 Frequencies --   1422.5663              1433.8363              1439.7276
 Red. masses --      1.2667                 1.3588                 1.2564
 Frc consts  --      1.5103                 1.6459                 1.5344
 IR Inten    --     20.9298                18.0308                 7.8782

                     82                     83                     84
                      A                      A                      A
 Frequencies --   1479.5225              1480.2743              1481.2952
 Red. masses --      1.0587                 1.1467                 1.1008
 Frc consts  --      1.3654                 1.4804                 1.4231
 IR Inten    --      3.8318                 3.5732                 8.3114

                     85                     86                     87
                      A                      A                      A
 Frequencies --   1484.7850              1489.5836              1492.2982
 Red. masses --      1.0470                 1.0651                 1.0823
 Frc consts  --      1.3600                 1.3924                 1.4201
 IR Inten    --      4.3894                11.2722                 2.5812

                     88                     89                     90
                      A                      A                      A
 Frequencies --   1498.5836              1501.6614              1504.1479
 Red. masses --      1.0788                 1.0883                 1.0602
 Frc consts  --      1.4274                 1.4459                 1.4132
 IR Inten    --      0.8153                 1.1678                12.0983

                     91                     92                     93
                      A                      A                      A
 Frequencies --   1524.6755              1530.4779              1728.8869
 Red. masses --      1.0850                 1.0937                 6.8891
 Frc consts  --      1.4860                 1.5095                12.1325
 IR Inten    --     11.2944                 1.4373                 1.5988

                     94                     95                     96
                      A                      A                      A
 Frequencies --   2960.8516              2969.0374              2984.5527
 Red. masses --      1.0386                 1.0700                 1.0579
 Frc consts  --      5.3647                 5.5572                 5.5523
 IR Inten    --     59.7839                62.6924                64.7249

                     97                     98                     99
                      A                      A                      A
 Frequencies --   2995.6908              2999.9062              3002.8684
 Red. masses --      1.0813                 1.0727                 1.0678
 Frc consts  --      5.7171                 5.6876                 5.6730
 IR Inten    --     15.9417                23.4470                 9.1365

                    100                    101                    102
                      A                      A                      A
 Frequencies --   3004.4026              3012.7633              3015.2338
 Red. masses --      1.1016                 1.0409                 1.0571
 Frc consts  --      5.8585                 5.5665                 5.6623
 IR Inten    --     65.6965                32.5595                37.0735

                    103                    104                    105
                      A                      A                      A
 Frequencies --   3022.5683              3026.1921              3039.7200
 Red. masses --      1.0921                 1.0752                 1.0651
 Frc consts  --      5.8784                 5.8016                 5.7983
 IR Inten    --     17.1684                15.4867                53.3443

                    106                    107                    108
                      A                      A                      A
 Frequencies --   3049.7774              3052.8589              3059.5596
 Red. masses --      1.1023                 1.1027                 1.0984
 Frc consts  --      6.0406                 6.0550                 6.0580
 IR Inten    --     32.7876                48.6275                18.5699

                    109                    110                    111
                      A                      A                      A
 Frequencies --   3064.7268              3078.6113              3088.7120
 Red. masses --      1.0920                 1.1008                 1.0849
 Frc consts  --      6.0431                 6.1472                 6.0982
 IR Inten    --     47.2051                42.1238                10.4919

                    112                    113                    114
                      A                      A                      A
 Frequencies --   3092.2516              3107.1587              3111.0647
 Red. masses --      1.0893                 1.0953                 1.0991
 Frc consts  --      6.1369                 6.2306                 6.2678
 IR Inten    --     23.0774                38.8805                16.7072

                    115                    116                    117
                      A                      A                      A
 Frequencies --   3144.9586              3808.3158              3815.6750
 Red. masses --      1.0873                 1.0660                 1.0660
 Frc consts  --      6.3361                 9.1094                 9.1443
 IR Inten    --     31.9434                20.7291                12.0746

 - Thermochemistry -
 -------------------
 Temperature   298.150 Kelvin.  Pressure   1.00000 Atm.
 Atom     1 has atomic number  6 and mass  12.00000

 Molecular mass:   244.16746 amu.
 Principal axes and moments of inertia in atomic units:
                           1         2         3
     Eigenvalues --  3498.024165588.222428031.86881
           X            0.99996  -0.00437   0.00791
           Y            0.00443   0.99996  -0.00721
           Z           -0.00788   0.00725   0.99994
 This molecule is an asymmetric top.
 Rotational symmetry number  1.
 Warning -- assumption of classical behavior for rotation
           may cause significant error
 Rotational temperatures (Kelvin)      0.02476     0.01550     0.01078
 Rotational constants (GHZ):           0.51593     0.32295     0.22470
 Zero-point vibrational energy     952827.9 (Joules/Mol)
                                  227.73132 (Kcal/Mol)
 Warning -- explicit consideration of  30 degrees of freedom as
           vibrations may cause significant error
 Vibrational temperatures:     20.56    72.17    87.54    99.01   128.25
          (Kelvin)            142.90   176.31   201.97   215.10   238.73
                              263.92   298.47   331.77   334.82   359.18
                              362.53   424.20   425.59   443.52   486.46
                              496.38   529.24   542.69   611.07   650.12
                              698.66   712.97   731.05   789.39   816.25
                              906.80   958.05  1112.18  1139.30  1165.75
                             1222.26  1272.98  1303.40  1326.08  1349.34
                             1388.28  1414.69  1423.50  1460.09  1473.85
                             1493.26  1511.55  1541.46  1546.41  1569.42
                             1588.39  1603.12  1630.25  1639.82  1665.74
                             1669.81  1702.48  1713.44  1737.46  1753.45
                             1762.57  1806.44  1820.20  1840.14  1862.31
                             1866.42  1884.55  1904.69  1929.43  1941.72
                             1959.36  1963.01  1997.41  2011.12  2015.70
                             2024.22  2031.54  2042.39  2046.76  2062.97
                             2071.45  2128.70  2129.78  2131.25  2136.27
                             2143.18  2147.08  2156.13  2160.56  2164.13
                             2193.67  2202.02  2487.48  4260.01  4271.78
                             4294.11  4310.13  4316.20  4320.46  4322.67
                             4334.69  4338.25  4348.80  4354.02  4373.48
                             4387.95  4392.38  4402.02  4409.46  4429.43
                             4443.97  4449.06  4470.51  4476.13  4524.89
                             5479.32  5489.91

 Zero-point correction=                           0.362913 (Hartree/Particle)
 Thermal correction to Energy=                    0.382182
 Thermal correction to Enthalpy=                  0.383126
 Thermal correction to Gibbs Free Energy=         0.314800
 Sum of electronic and zero-point Energies=           -810.350957
 Sum of electronic and thermal Energies=              -810.331687
 Sum of electronic and thermal Enthalpies=            -810.330743
 Sum of electronic and thermal Free Energies=         -810.399070

                     E (Thermal)             CV                S
                      KCal/Mol        Cal/Mol-Kelvin    Cal/Mol-Kelvin
 Total                  239.823             71.973            143.805
 Electronic               0.000              0.000              0.000
 Translational            0.889              2.981             42.379
 Rotational               0.889              2.981             33.418
 Vibrational            238.045             66.011             68.009
 Vibration     1          0.593              1.986              7.301
 Vibration     2          0.595              1.978              4.811
 Vibration     3          0.597              1.973              4.430
 Vibration     4          0.598              1.969              4.187
 Vibration     5          0.602              1.957              3.679
 Vibration     6          0.604              1.950              3.468
 Vibration     7          0.610              1.930              3.060
 Vibration     8          0.615              1.913              2.799
 Vibration     9          0.618              1.903              2.679
 Vibration    10          0.624              1.884              2.481
 Vibration    11          0.631              1.862              2.293
 Vibration    12          0.641              1.829              2.066
 Vibration    13          0.652              1.794              1.874
 Vibration    14          0.653              1.791              1.858
 Vibration    15          0.662              1.763              1.733
 Vibration    16          0.664              1.759              1.717
 Vibration    17          0.689              1.683              1.446
 Vibration    18          0.690              1.682              1.441
 Vibration    19          0.698              1.658              1.372
 Vibration    20          0.718              1.599              1.221
 Vibration    21          0.723              1.585              1.189
 Vibration    22          0.740              1.538              1.089
 Vibration    23          0.748              1.519              1.050
 Vibration    24          0.787              1.416              0.876
 Vibration    25          0.811              1.357              0.790
 Vibration    26          0.842              1.282              0.695
 Vibration    27          0.851              1.260              0.669
 Vibration    28          0.863              1.232              0.638
 Vibration    29          0.904              1.143              0.547
 Vibration    30          0.923              1.102              0.509

 Optimization completed.
    -- Stationary point found.
 Normal termination of Gaussian 16 at Mon May 29 12:45:04 2023.
