 Gaussian 16, Revision A.03,
 Gaussian 16:  ES64L-G16RevA.03 25-Dec-2016

 -----------------------------
 # opt freq b3lyp/6-31g(2df,p)
 -----------------------------

 -------------------
 Title Card Required
 -------------------
 Symbolic Z-matrix:
 Charge =  0 Multiplicity = 1

 SCF Done:  E(RB3LYP) =  -635.949787081     A.U. after   13 cycles
 SCF Done:  E(RB3LYP) =  -635.954878354     A.U. after   11 cycles
 SCF Done:  E(RB3LYP) =  -635.955744274     A.U. after   10 cycles
 SCF Done:  E(RB3LYP) =  -635.955923420     A.U. after   10 cycles
 SCF Done:  E(RB3LYP) =  -635.955980913     A.U. after   10 cycles
 SCF Done:  E(RB3LYP) =  -635.956145080     A.U. after   11 cycles
 SCF Done:  E(RB3LYP) =  -635.955954972     A.U. after   12 cycles
 SCF Done:  E(RB3LYP) =  -635.956370781     A.U. after   11 cycles
 SCF Done:  E(RB3LYP) =  -635.956307873     A.U. after   12 cycles
 SCF Done:  E(RB3LYP) =  -635.955684403     A.U. after   12 cycles
 SCF Done:  E(RB3LYP) =  -635.955914024     A.U. after   12 cycles
 SCF Done:  E(RB3LYP) =  -635.956856883     A.U. after   11 cycles
 SCF Done:  E(RB3LYP) =  -635.957023021     A.U. after   11 cycles
 SCF Done:  E(RB3LYP) =  -635.957046420     A.U. after    9 cycles
 SCF Done:  E(RB3LYP) =  -635.957049845     A.U. after    8 cycles
 SCF Done:  E(RB3LYP) =  -635.957050396     A.U. after    7 cycles
 SCF Done:  E(RB3LYP) =  -635.957050497     A.U. after    6 cycles
 SCF Done:  E(RB3LYP) =  -635.957050542     A.U. after    7 cycles
 SCF Done:  E(RB3LYP) =  -635.957050544     A.U. after    5 cycles
 Optimization completed.
    -- Stationary point found.
 Normal termination of Gaussian 16 at Tue May 23 00:35:55 2023.

 ----------------------------------------------------------------------
 #N Geom=AllCheck Guess=TCheck SCRF=Check GenChk RB3LYP/6-31G(2df,p) Fr
 eq
 ----------------------------------------------------------------------

 Structure from the checkpoint file:  "COCCqCrNCCCqCrCOO.chk"
 -------------------
 Title Card Required
 -------------------
 Charge =  0 Multiplicity = 1

                         Standard orientation:
 ---------------------------------------------------------------------
 Center     Atomic      Atomic             Coordinates (Angstroms)
 Number     Number       Type             X           Y           Z
 ---------------------------------------------------------------------
      1          6           0       -5.938502   -1.004568    0.023818
      2          8           0       -4.831934   -0.250128   -0.405657
      3          6           0       -3.630061   -0.624138    0.227997
      4          6           0       -2.504863    0.288514   -0.264959
      5          6           0       -2.760649    1.736248    0.162313
      6          7           0       -1.247001   -0.222894    0.285341
      7          6           0       -0.037933    0.404715   -0.240070
      8          6           0        1.206205   -0.301014    0.304033
      9          6           0        2.536821    0.250785   -0.238020
     10          6           0        2.788589    1.710957    0.166612
     11          6           0        3.680986   -0.654512    0.228753
     12          8           0        4.860125   -0.223467   -0.437216
     13          8           0        5.926377   -1.107412   -0.028990
     14          1           0       -6.814453   -0.640435   -0.518679
     15          1           0       -6.116513   -0.891335    1.105052
     16          1           0       -5.809664   -2.077842   -0.189883
     17          1           0       -3.390262   -1.678211   -0.003759
     18          1           0       -3.719760   -0.544733    1.324413
     19          1           0       -2.517992    0.248440   -1.370937
     20          1           0       -2.662653    1.830301    1.249252
     21          1           0       -3.772018    2.027925   -0.129292
     22          1           0       -2.059467    2.431429   -0.307024
     23          1           0       -1.194249   -1.219640    0.091600
     24          1           0       -0.032081    1.454164    0.069924
     25          1           0       -0.005543    0.404956   -1.347713
     26          1           0        1.138348   -1.368970    0.051829
     27          1           0        1.193202   -0.241358    1.399810
     28          1           0        2.514088    0.192024   -1.334893
     29          1           0        2.755650    1.822007    1.257421
     30          1           0        2.039532    2.383359   -0.259972
     31          1           0        3.771259    2.042275   -0.177018
     32          1           0        3.480815   -1.703757   -0.024219
     33          1           0        3.815872   -0.583270    1.319195
     34          1           0        6.434797   -0.520945    0.549553
 ---------------------------------------------------------------------

 SCF Done:  E(RB3LYP) =  -635.957050544     A.U. after    1 cycles

 The electronic state is 1-A.
 Alpha  occ. eigenvalues --  -19.18788 -19.18625 -19.14020 -14.31008 -10.22567
 Alpha  occ. eigenvalues --  -10.22430 -10.22360 -10.20666 -10.20256 -10.19299
 Alpha  occ. eigenvalues --  -10.18312 -10.17269 -10.16463  -1.11137  -1.03394
 Alpha  occ. eigenvalues --   -0.90856  -0.90355  -0.80443  -0.76376  -0.70628
 Alpha  occ. eigenvalues --   -0.69748  -0.67453  -0.64532  -0.60586  -0.57223
 Alpha  occ. eigenvalues --   -0.56306  -0.52480  -0.50059  -0.48673  -0.48118
 Alpha  occ. eigenvalues --   -0.47261  -0.45991  -0.44940  -0.44330  -0.43042
 Alpha  occ. eigenvalues --   -0.42539  -0.41300  -0.40327  -0.38424  -0.37815
 Alpha  occ. eigenvalues --   -0.37424  -0.36676  -0.35751  -0.34156  -0.34051
 Alpha  occ. eigenvalues --   -0.32989  -0.32534  -0.32185  -0.31073  -0.28890
 Alpha  occ. eigenvalues --   -0.25957  -0.25559  -0.22167
 Alpha virt. eigenvalues --    0.03634   0.07858   0.08424   0.09199   0.09785
 Alpha virt. eigenvalues --    0.10666   0.11930   0.13545   0.14306   0.14502
 Alpha virt. eigenvalues --    0.14880   0.15385   0.16092   0.16283   0.16607

 Mulliken charges:
               1
     1  C   -0.226185
     2  O   -0.231050
     3  C   -0.068257
     4  C    0.053431
     5  C   -0.382076
     6  N   -0.316343
     7  C   -0.139799
     8  C   -0.205783
     9  C   -0.008029
    10  C   -0.393908
    11  C   -0.010345
    12  O   -0.198769
    13  O   -0.321087
    14  H    0.126660
    15  H    0.104600
    16  H    0.102573
    17  H    0.072737
    18  H    0.093324
    19  H    0.062231
    20  H    0.114814
    21  H    0.131347
    22  H    0.111140
    23  H    0.207008
    24  H    0.111479
    25  H    0.074429
    26  H    0.087534
    27  H    0.106380
    28  H    0.089105
    29  H    0.110371
    30  H    0.118482
    31  H    0.129857
    32  H    0.100343
    33  H    0.084367
    34  H    0.309419
 Sum of Mulliken charges =  -0.00000

 Dipole moment (field-independent basis, Debye):
    X=             -0.6751    Y=             -0.3547    Z=              1.3714  Tot=              1.5691
 Quadrupole moment (field-independent basis, Debye-Ang):
   XX=            -79.5637   YY=            -81.2023   ZZ=            -83.1783
   XY=              8.8511   XZ=              6.6782   YZ=             -0.2473

  Exact polarizability: 164.051  -0.306 111.874   2.082  -0.309  98.297
 Approx polarizability: 179.189  -3.754 162.994   3.176  -2.470 156.678

                      1                      2                      3
                      A                      A                      A
 Frequencies --     25.8171                29.0774                50.6138
 Red. masses --      2.7958                 4.2298                 3.8706
 Frc consts  --      0.0011                 0.0021                 0.0058
 IR Inten    --      0.9570                 0.4083                 0.3241

                      4                      5                      6
                      A                      A                      A
 Frequencies --     75.5438                90.4417                93.6110
 Red. masses --      3.1619                 2.5243                 3.3644
 Frc consts  --      0.0106                 0.0122                 0.0174
 IR Inten    --      0.8077                 2.6580                 8.7141

                      7                      8                      9
                      A                      A                      A
 Frequencies --    107.2871               117.1138               135.9746
 Red. masses --      2.0243                 2.2954                 2.5782
 Frc consts  --      0.0137                 0.0185                 0.0281
 IR Inten    --      1.5510                 2.1212                 2.0355

                     10                     11                     12
                      A                      A                      A
 Frequencies --    142.4016               188.9527               217.3354
 Red. masses --      2.8575                 3.8418                 1.2248
 Frc consts  --      0.0341                 0.0808                 0.0341
 IR Inten    --      1.0510                 0.3431                61.3134

                     13                     14                     15
                      A                      A                      A
 Frequencies --    222.1187               233.4522               239.0465
 Red. masses --      1.4339                 1.3044                 1.7864
 Frc consts  --      0.0417                 0.0419                 0.0601
 IR Inten    --     24.3765                12.0238                 3.7117

                     16                     17                     18
                      A                      A                      A
 Frequencies --    251.5571               283.9066               336.1807
 Red. masses --      1.2171                 2.9650                 2.7397
 Frc consts  --      0.0454                 0.1408                 0.1824
 IR Inten    --      1.6261                 2.4327                 0.2505

                     19                     20                     21
                      A                      A                      A
 Frequencies --    358.5386               395.7632               415.4405
 Red. masses --      3.5863                 2.4807                 3.1805
 Frc consts  --      0.2716                 0.2289                 0.3234
 IR Inten    --      0.7179                 2.0776                 6.4590

                     22                     23                     24
                      A                      A                      A
 Frequencies --    453.8522               490.2542               546.9133
 Red. masses --      2.5536                 2.5624                 2.7246
 Frc consts  --      0.3099                 0.3629                 0.4802
 IR Inten    --      2.6998                 0.2281                 3.8160

                     25                     26                     27
                      A                      A                      A
 Frequencies --    572.3173               782.3996               801.8580
 Red. masses --      3.0719                 1.2067                 1.3593
 Frc consts  --      0.5928                 0.4352                 0.5149
 IR Inten    --      5.1651                30.6812                35.4843

                     28                     29                     30
                      A                      A                      A
 Frequencies --    850.8356               870.5754               932.8662
 Red. masses --      2.5180                 2.5273                 1.2155
 Frc consts  --      1.0740                 1.1285                 0.6232
 IR Inten    --      1.7147                 0.3866                 1.6501

                     31                     32                     33
                      A                      A                      A
 Frequencies --    935.3431               948.6540               953.1944
 Red. masses --      1.2178                10.1604                 1.7241
 Frc consts  --      0.6277                 5.3874                 0.9230
 IR Inten    --      3.0678                11.9617                11.7953

                     34                     35                     36
                      A                      A                      A
 Frequencies --    963.0164               995.7209              1006.4693
 Red. masses --      1.8751                 3.4363                 1.6317
 Frc consts  --      1.0246                 2.0073                 0.9739
 IR Inten    --      3.2731                20.4578                 2.8654

                     37                     38                     39
                      A                      A                      A
 Frequencies --   1034.3274              1065.7574              1088.2927
 Red. masses --      4.2612                 3.7424                 2.4255
 Frc consts  --      2.6860                 2.5045                 1.6925
 IR Inten    --     10.8475                 9.2394                12.1594

                     40                     41                     42
                      A                      A                      A
 Frequencies --   1121.8289              1141.7570              1155.8950
 Red. masses --      1.9522                 2.4271                 2.8192
 Frc consts  --      1.4475                 1.8642                 2.2193
 IR Inten    --      0.4535                18.7859                16.0302

                     43                     44                     45
                      A                      A                      A
 Frequencies --   1170.7916              1175.2428              1181.0019
 Red. masses --      1.7039                 1.6478                 4.3280
 Frc consts  --      1.3761                 1.3409                 3.5566
 IR Inten    --      8.2799                 5.7723               208.0753

                     46                     47                     48
                      A                      A                      A
 Frequencies --   1195.2505              1198.1646              1226.4445
 Red. masses --      1.7434                 1.8461                 1.2793
 Frc consts  --      1.4675                 1.5615                 1.1337
 IR Inten    --      1.0759                 3.2599                 8.9949

                     49                     50                     51
                      A                      A                      A
 Frequencies --   1232.7254              1257.8487              1265.0065
 Red. masses --      1.7092                 1.2208                 1.1840
 Frc consts  --      1.5303                 1.1380                 1.1163
 IR Inten    --     50.8960                10.9315                 5.4601

                     52                     53                     54
                      A                      A                      A
 Frequencies --   1287.0362              1318.6160              1327.9862
 Red. masses --      1.2249                 1.1363                 1.2405
 Frc consts  --      1.1955                 1.1641                 1.2890
 IR Inten    --      1.7270                15.6677                11.0205

                     55                     56                     57
                      A                      A                      A
 Frequencies --   1354.2132              1378.7769              1384.6379
 Red. masses --      1.3501                 1.3423                 1.2777
 Frc consts  --      1.4588                 1.5035                 1.4433
 IR Inten    --      8.9871                 6.3106                25.7800

                     58                     59                     60
                      A                      A                      A
 Frequencies --   1385.9361              1393.0521              1398.3708
 Red. masses --      1.1716                 1.3144                 1.4165
 Frc consts  --      1.3259                 1.5028                 1.6320
 IR Inten    --     31.1553                16.7036                 3.3981

                     61                     62                     63
                      A                      A                      A
 Frequencies --   1411.9052              1418.0319              1426.2831
 Red. masses --      1.3629                 1.3274                 1.4263
 Frc consts  --      1.6008                 1.5727                 1.7095
 IR Inten    --      1.8660                10.0601                 6.5411

                     64                     65                     66
                      A                      A                      A
 Frequencies --   1479.8165              1485.1912              1485.4467
 Red. masses --      1.1452                 1.0810                 1.0503
 Frc consts  --      1.4776                 1.4048                 1.3655
 IR Inten    --      8.1766                 0.8366                 5.3805

                     67                     68                     69
                      A                      A                      A
 Frequencies --   1494.8227              1496.3978              1499.7104
 Red. masses --      1.0924                 1.0612                 1.0516
 Frc consts  --      1.4382                 1.4001                 1.3936
 IR Inten    --      8.5727                 6.9073                 6.2146

                     70                     71                     72
                      A                      A                      A
 Frequencies --   1504.5327              1506.0396              1514.7904
 Red. masses --      1.0649                 1.0767                 1.1932
 Frc consts  --      1.4202                 1.4388                 1.6131
 IR Inten    --      9.4520                 3.9665                18.5506

                     73                     74                     75
                      A                      A                      A
 Frequencies --   1521.4479              1524.3172              1526.5176
 Red. masses --      1.0835                 1.0881                 1.0892
 Frc consts  --      1.4778                 1.4896                 1.4954
 IR Inten    --      4.5549                 7.4175                 1.6971

                     76                     77                     78
                      A                      A                      A
 Frequencies --   2903.8970              2915.0361              2932.8967
 Red. masses --      1.0738                 1.0802                 1.0609
 Frc consts  --      5.3351                 5.4079                 5.3765
 IR Inten    --     52.8737                65.1691                50.1241

                     79                     80                     81
                      A                      A                      A
 Frequencies --   2968.1599              2982.2759              2983.3041
 Red. masses --      1.0406                 1.0939                 1.0608
 Frc consts  --      5.4016                 5.7320                 5.5627
 IR Inten    --     74.8096                65.3278                27.1755

                     82                     83                     84
                      A                      A                      A
 Frequencies --   3003.0920              3011.2469              3014.1315
 Red. masses --      1.0639                 1.1030                 1.0806
 Frc consts  --      5.6532                 5.8927                 5.7843
 IR Inten    --     28.0969                54.0309                11.6259

                     85                     86                     87
                      A                      A                      A
 Frequencies --   3032.6465              3039.2341              3040.6387
 Red. masses --      1.0425                 1.0973                 1.0387
 Frc consts  --      5.6492                 5.9718                 5.6584
 IR Inten    --     11.4095                25.0676                22.6465

                     88                     89                     90
                      A                      A                      A
 Frequencies --   3052.4083              3074.3954              3103.2046
 Red. masses --      1.0929                 1.0897                 1.0952
 Frc consts  --      5.9997                 6.0685                 6.2137
 IR Inten    --     31.3530                58.0062                26.4183

                     91                     92                     93
                      A                      A                      A
 Frequencies --   3111.1819              3112.4580              3125.4884
 Red. masses --      1.1001                 1.0958                 1.1010
 Frc consts  --      6.2736                 6.2545                 6.3369
 IR Inten    --     31.5850                32.8742                23.9153

                     94                     95                     96
                      A                      A                      A
 Frequencies --   3131.8863              3486.1230              3747.2809
 Red. masses --      1.1002                 1.0729                 1.0687
 Frc consts  --      6.3584                 7.6827                 8.8417
 IR Inten    --     16.3463                 1.4372                28.8323

 - Thermochemistry -
 -------------------
 Temperature   298.150 Kelvin.  Pressure   1.00000 Atm.
 Atom     1 has atomic number  6 and mass  12.00000

 Molecular mass:   191.15214 amu.
 Principal axes and moments of inertia in atomic units:
                           1         2         3
     Eigenvalues --   689.562339794.75002**********
           X            0.99998   0.00676   0.00109
           Y           -0.00675   0.99996  -0.00649
           Z           -0.00114   0.00648   0.99998
 This molecule is an asymmetric top.
 Rotational symmetry number  1.
 Warning -- assumption of classical behavior for rotation
           may cause significant error
 Rotational temperatures (Kelvin)      0.12561     0.00884     0.00842
 Rotational constants (GHZ):           2.61723     0.18426     0.17552
 Zero-point vibrational energy     795036.0 (Joules/Mol)
                                  190.01817 (Kcal/Mol)
 Warning -- explicit consideration of  25 degrees of freedom as
           vibrations may cause significant error
 Vibrational temperatures:     37.15    41.84    72.82   108.69   130.13
          (Kelvin)            134.69   154.36   168.50   195.64   204.88
                              271.86   312.70   319.58   335.89   343.93
                              361.93   408.48   483.69   515.86   569.41
                              597.73   652.99   705.37   786.89   823.44
                             1125.70  1153.69  1224.16  1252.56  1342.19
                             1345.75  1364.90  1371.43  1385.57  1432.62
                             1448.08  1488.17  1533.39  1565.81  1614.06
                             1642.73  1663.08  1684.51  1690.91  1699.20
                             1719.70  1723.89  1764.58  1773.62  1809.76
                             1820.06  1851.76  1897.19  1910.68  1948.41
                             1983.75  1992.19  1994.05  2004.29  2011.94
                             2031.42  2040.23  2052.10  2129.13  2136.86
                             2137.23  2150.72  2152.98  2157.75  2164.69
                             2166.86  2179.45  2189.02  2193.15  2196.32
                             4178.06  4194.09  4219.78  4270.52  4290.83
                             4292.31  4320.78  4332.51  4336.66  4363.30
                             4372.78  4374.80  4391.73  4423.37  4464.82
                             4476.30  4478.13  4496.88  4506.09  5015.75
                             5391.50

 Zero-point correction=                           0.302813 (Hartree/Particle)
 Thermal correction to Energy=                    0.320090
 Thermal correction to Enthalpy=                  0.321035
 Thermal correction to Gibbs Free Energy=         0.256009
 Sum of electronic and zero-point Energies=           -635.654237
 Sum of electronic and thermal Energies=              -635.636960
 Sum of electronic and thermal Enthalpies=            -635.636016
 Sum of electronic and thermal Free Energies=         -635.701041

                     E (Thermal)             CV                S
                      KCal/Mol        Cal/Mol-Kelvin    Cal/Mol-Kelvin
 Total                  200.860             60.096            136.858
 Electronic               0.000              0.000              0.000
 Translational            0.889              2.981             41.649
 Rotational               0.889              2.981             32.607
 Vibrational            199.082             54.134             62.601
 Vibration     1          0.593              1.985              6.127
 Vibration     2          0.593              1.984              5.891
 Vibration     3          0.595              1.977              4.793
 Vibration     4          0.599              1.965              4.003
 Vibration     5          0.602              1.956              3.650
 Vibration     6          0.603              1.954              3.583
 Vibration     7          0.606              1.943              3.317
 Vibration     8          0.608              1.935              3.147
 Vibration     9          0.614              1.917              2.860
 Vibration    10          0.616              1.911              2.771
 Vibration    11          0.633              1.855              2.238
 Vibration    12          0.646              1.815              1.981
 Vibration    13          0.648              1.807              1.942
 Vibration    14          0.654              1.790              1.852
 Vibration    15          0.657              1.781              1.810
 Vibration    16          0.664              1.760              1.720
 Vibration    17          0.682              1.704              1.510
 Vibration    18          0.717              1.603              1.230
 Vibration    19          0.733              1.558              1.128
 Vibration    20          0.762              1.479              0.978
 Vibration    21          0.779              1.437              0.908
 Vibration    22          0.812              1.352              0.784
 Vibration    23          0.846              1.272              0.683
 Vibration    24          0.902              1.146              0.551
 Vibration    25          0.929              1.091              0.500

 Optimization completed.
    -- Stationary point found.
 Normal termination of Gaussian 16 at Tue May 23 02:11:20 2023.
