 Gaussian 16, Revision A.03,
 Gaussian 16:  ES64L-G16RevA.03 25-Dec-2016

 -----------------------------
 # opt freq b3lyp/6-31g(2df,p)
 -----------------------------

 -------------------
 Title Card Required
 -------------------
 Symbolic Z-matrix:
 Charge =  0 Multiplicity = 1

 SCF Done:  E(RB3LYP) =  -688.977778569     A.U. after   14 cycles
 SCF Done:  E(RB3LYP) =  -688.987829449     A.U. after   12 cycles
 SCF Done:  E(RB3LYP) =  -688.991761693     A.U. after   12 cycles
 SCF Done:  E(RB3LYP) =  -688.993894294     A.U. after   12 cycles
 SCF Done:  E(RB3LYP) =  -688.994451777     A.U. after   11 cycles
 SCF Done:  E(RB3LYP) =  -688.994543410     A.U. after   10 cycles
 SCF Done:  E(RB3LYP) =  -688.994773807     A.U. after   10 cycles
 SCF Done:  E(RB3LYP) =  -688.995289426     A.U. after   12 cycles
 SCF Done:  E(RB3LYP) =  -688.995598474     A.U. after   10 cycles
 SCF Done:  E(RB3LYP) =  -688.995731840     A.U. after   10 cycles
 SCF Done:  E(RB3LYP) =  -688.996341978     A.U. after   11 cycles
 SCF Done:  E(RB3LYP) =  -688.996356501     A.U. after    9 cycles
 SCF Done:  E(RB3LYP) =  -688.996357876     A.U. after    9 cycles
 SCF Done:  E(RB3LYP) =  -688.996369515     A.U. after    9 cycles
 SCF Done:  E(RB3LYP) =  -688.996372162     A.U. after    8 cycles
 SCF Done:  E(RB3LYP) =  -688.996375450     A.U. after    9 cycles
 SCF Done:  E(RB3LYP) =  -688.996375450     A.U. after    9 cycles
 SCF Done:  E(RB3LYP) =  -688.996375706     A.U. after    8 cycles
 SCF Done:  E(RB3LYP) =  -688.996375809     A.U. after    7 cycles
 Optimization completed.
    -- Stationary point found.
 Normal termination of Gaussian 16 at Tue May 23 09:25:28 2023.

 ----------------------------------------------------------------------
 #N Geom=AllCheck Guess=TCheck SCRF=Check GenChk RB3LYP/6-31G(2df,p) Fr
 eq
 ----------------------------------------------------------------------

 Structure from the checkpoint file:  "COCCC1CqCOCrNCqdOrC1N.chk"
 -------------------
 Title Card Required
 -------------------
 Charge =  0 Multiplicity = 1

                         Standard orientation:
 ---------------------------------------------------------------------
 Center     Atomic      Atomic             Coordinates (Angstroms)
 Number     Number       Type             X           Y           Z
 ---------------------------------------------------------------------
      1          6           0        4.685215   -0.530182   -0.057492
      2          8           0        3.485272    0.203372   -0.023696
      3          6           0        2.346604   -0.610454    0.150043
      4          6           0        1.118706    0.295202    0.144188
      5          6           0       -0.184314   -0.404932    0.542635
      6          6           0       -1.402016    0.548803    0.745720
      7          6           0       -1.500841    1.753456   -0.201773
      8          8           0       -0.625001    2.757880    0.250665
      9          6           0       -0.624405    3.903216   -0.570141
     10          7           0       -2.519870   -0.356518    0.543013
     11          6           0       -2.236848   -1.515672   -0.127004
     12          8           0       -3.029377   -2.384514   -0.407815
     13          6           0       -0.722785   -1.494545   -0.427530
     14          7           0       -0.181833   -2.841297   -0.367879
     15          1           0        5.501821    0.182910   -0.193880
     16          1           0        4.701488   -1.251961   -0.890034
     17          1           0        4.852190   -1.086362    0.878975
     18          1           0        2.413776   -1.168711    1.101150
     19          1           0        2.300075   -1.359084   -0.660042
     20          1           0        1.024228    0.746860   -0.849601
     21          1           0        1.314122    1.121242    0.834317
     22          1           0       -0.029290   -0.904794    1.509414
     23          1           0       -1.403954    0.950796    1.765719
     24          1           0       -2.541973    2.121331   -0.199291
     25          1           0       -1.270603    1.459679   -1.239838
     26          1           0        0.074859    4.618698   -0.131745
     27          1           0       -1.622788    4.365086   -0.622423
     28          1           0       -0.299573    3.669579   -1.595792
     29          1           0       -3.474337   -0.119019    0.764596
     30          1           0       -0.612000   -1.141084   -1.463450
     31          1           0       -0.359127   -3.262090    0.538576
     32          1           0        0.819955   -2.841628   -0.517713
 ---------------------------------------------------------------------

 SCF Done:  E(RB3LYP) =  -688.996375809     A.U. after    1 cycles

 The electronic state is 1-A.
 Alpha  occ. eigenvalues --  -19.15216 -19.14253 -19.09602 -14.35052 -14.31126
 Alpha  occ. eigenvalues --  -10.26858 -10.23814 -10.23295 -10.23278 -10.23267
 Alpha  occ. eigenvalues --  -10.22674 -10.21711 -10.19895 -10.18378  -1.04592
 Alpha  occ. eigenvalues --   -1.03633  -1.02695  -0.93732  -0.88374  -0.80013
 Alpha  occ. eigenvalues --   -0.75859  -0.73300  -0.68860  -0.67557  -0.63974
 Alpha  occ. eigenvalues --   -0.61410  -0.57950  -0.57191  -0.52021  -0.51187
 Alpha  occ. eigenvalues --   -0.49082  -0.48665  -0.48203  -0.47751  -0.46097
 Alpha  occ. eigenvalues --   -0.45471  -0.43755  -0.43151  -0.42176  -0.41439
 Alpha  occ. eigenvalues --   -0.40606  -0.39303  -0.38423  -0.37767  -0.36711
 Alpha  occ. eigenvalues --   -0.35340  -0.34597  -0.33454  -0.32357  -0.31820
 Alpha  occ. eigenvalues --   -0.26699  -0.25907  -0.25159  -0.24181  -0.23070
 Alpha virt. eigenvalues --    0.03055   0.07057   0.07603   0.08272   0.08938
 Alpha virt. eigenvalues --    0.09865   0.11401   0.12516   0.13496   0.13693
 Alpha virt. eigenvalues --    0.14231   0.15176   0.15368   0.15626   0.16472

 Mulliken charges:
               1
     1  C   -0.229491
     2  O   -0.229682
     3  C   -0.071335
     4  C   -0.211170
     5  C   -0.023973
     6  C   -0.044901
     7  C   -0.068564
     8  O   -0.224515
     9  C   -0.230467
    10  N   -0.315884
    11  C    0.409637
    12  O   -0.371740
    13  C   -0.113689
    14  N   -0.511890
    15  H    0.128245
    16  H    0.103219
    17  H    0.103138
    18  H    0.082569
    19  H    0.080001
    20  H    0.103947
    21  H    0.126428
    22  H    0.074692
    23  H    0.095421
    24  H    0.084788
    25  H    0.093166
    26  H    0.132684
    27  H    0.106906
    28  H    0.109736
    29  H    0.248987
    30  H    0.103282
    31  H    0.229669
    32  H    0.230786
 Sum of Mulliken charges =  -0.00000

 Dipole moment (field-independent basis, Debye):
    X=              1.9890    Y=              3.0094    Z=              1.1413  Tot=              3.7835
 Quadrupole moment (field-independent basis, Debye-Ang):
   XX=            -85.3541   YY=            -90.5926   ZZ=            -83.6058
   XY=            -18.3233   XZ=             -4.1221   YZ=             -7.8181

  Exact polarizability: 137.523   2.469 133.911  -1.299   2.257  94.510
 Approx polarizability: 172.881   8.395 183.134   0.076   8.298 154.647

                      1                      2                      3
                      A                      A                      A
 Frequencies --     37.0900                53.0613                57.9767
 Red. masses --      3.8557                 2.7383                 3.3880
 Frc consts  --      0.0031                 0.0045                 0.0067
 IR Inten    --      0.2443                 1.1384                 1.1084

                      4                      5                      6
                      A                      A                      A
 Frequencies --     64.4597                92.7137                96.7655
 Red. masses --      3.9938                 2.5424                 3.0937
 Frc consts  --      0.0098                 0.0129                 0.0171
 IR Inten    --      1.9672                 0.3779                 0.5017

                      7                      8                      9
                      A                      A                      A
 Frequencies --    117.4593               137.6973               153.9556
 Red. masses --      2.2486                 1.6414                 1.4169
 Frc consts  --      0.0183                 0.0183                 0.0198
 IR Inten    --     11.2316                10.7843                16.1728

                     10                     11                     12
                      A                      A                      A
 Frequencies --    198.1696               225.6187               234.5621
 Red. masses --      3.1085                 1.8358                 1.2567
 Frc consts  --      0.0719                 0.0551                 0.0407
 IR Inten    --      3.9389                 2.7900                 1.5426

                     13                     14                     15
                      A                      A                      A
 Frequencies --    244.7081               253.8198               293.2281
 Red. masses --      2.9096                 2.3991                 3.7558
 Frc consts  --      0.1027                 0.0911                 0.1903
 IR Inten    --      3.1850                 2.4804                 0.7494

                     16                     17                     18
                      A                      A                      A
 Frequencies --    316.3631               324.1380               379.6806
 Red. masses --      3.8328                 3.0521                 4.9503
 Frc consts  --      0.2260                 0.1889                 0.4205
 IR Inten    --      1.2111                 1.4756                 3.9658

                     19                     20                     21
                      A                      A                      A
 Frequencies --    427.4077               456.9962               506.3584
 Red. masses --      3.0939                 2.4735                 1.4516
 Frc consts  --      0.3330                 0.3044                 0.2193
 IR Inten    --      3.3222                19.1797                39.3451

                     22                     23                     24
                      A                      A                      A
 Frequencies --    553.8347               564.8758               602.1582
 Red. masses --      3.6494                 2.6564                 3.3539
 Frc consts  --      0.6595                 0.4994                 0.7165
 IR Inten    --     10.1372                48.0391                 2.7203

                     25                     26                     27
                      A                      A                      A
 Frequencies --    702.1743               747.0546               779.6311
 Red. masses --      4.8015                 5.1979                 1.4523
 Frc consts  --      1.3948                 1.7092                 0.5201
 IR Inten    --     14.7691                13.1100                70.8314

                     28                     29                     30
                      A                      A                      A
 Frequencies --    800.0001               855.0217               892.1411
 Red. masses --      1.3437                 2.8557                 3.1474
 Frc consts  --      0.5067                 1.2300                 1.4760
 IR Inten    --     87.1735                 1.7704                 2.4466

                     31                     32                     33
                      A                      A                      A
 Frequencies --    938.1089               994.7050               998.6331
 Red. masses --      1.9382                 3.6747                 3.9730
 Frc consts  --      1.0050                 2.1422                 2.3344
 IR Inten    --     25.8304                25.2070                26.2536

                     34                     35                     36
                      A                      A                      A
 Frequencies --   1028.9977              1055.3412              1081.5284
 Red. masses --      1.5435                 2.9682                 1.8463
 Frc consts  --      0.9629                 1.9477                 1.2724
 IR Inten    --      1.5661                 7.5613                 8.0506

                     37                     38                     39
                      A                      A                      A
 Frequencies --   1103.9819              1115.9207              1133.2740
 Red. masses --      3.0419                 2.6243                 1.8069
 Frc consts  --      2.1844                 1.9254                 1.3672
 IR Inten    --      8.7087                 4.6010                 8.4158

                     40                     41                     42
                      A                      A                      A
 Frequencies --   1138.6135              1163.7922              1165.7881
 Red. masses --      2.0117                 4.3183                 4.8571
 Frc consts  --      1.5366                 3.4460                 3.8893
 IR Inten    --     36.2000               142.3020               176.6221

                     43                     44                     45
                      A                      A                      A
 Frequencies --   1180.4374              1182.2495              1191.2090
 Red. masses --      1.3666                 1.2621                 1.8344
 Frc consts  --      1.1219                 1.0393                 1.5336
 IR Inten    --      1.1343                 0.2799                22.3474

                     46                     47                     48
                      A                      A                      A
 Frequencies --   1224.8223              1228.8185              1231.5648
 Red. masses --      1.6103                 1.6834                 1.4763
 Frc consts  --      1.4233                 1.4976                 1.3193
 IR Inten    --     66.1263                29.3850                18.7707

                     49                     50                     51
                      A                      A                      A
 Frequencies --   1243.7273              1258.5718              1282.6208
 Red. masses --      1.2318                 1.9785                 1.3697
 Frc consts  --      1.1226                 1.8465                 1.3276
 IR Inten    --      0.1683                41.6208                13.7332

                     52                     53                     54
                      A                      A                      A
 Frequencies --   1299.7524              1311.7653              1324.1589
 Red. masses --      1.2662                 1.2196                 1.4211
 Frc consts  --      1.2603                 1.2365                 1.4681
 IR Inten    --      2.1508                 3.9564                17.8843

                     55                     56                     57
                      A                      A                      A
 Frequencies --   1354.0672              1365.5352              1386.1297
 Red. masses --      1.5105                 1.2670                 1.4330
 Frc consts  --      1.6318                 1.3919                 1.6222
 IR Inten    --      2.5936                 4.5698                 2.3813

                     58                     59                     60
                      A                      A                      A
 Frequencies --   1407.1180              1425.6014              1427.1007
 Red. masses --      1.4416                 1.4291                 1.4321
 Frc consts  --      1.6818                 1.7112                 1.7184
 IR Inten    --      1.6867                 4.8720                29.0204

                     61                     62                     63
                      A                      A                      A
 Frequencies --   1440.8928              1480.2521              1481.6986
 Red. masses --      2.1029                 1.1364                 1.1644
 Frc consts  --      2.5723                 1.4670                 1.5061
 IR Inten    --     62.5166                 4.6890                 0.2217

                     64                     65                     66
                      A                      A                      A
 Frequencies --   1482.5493              1485.7045              1486.0597
 Red. masses --      1.1070                 1.0467                 1.0470
 Frc consts  --      1.4336                 1.3613                 1.3623
 IR Inten    --      1.5491                 4.9037                 6.1773

                     67                     68                     69
                      A                      A                      A
 Frequencies --   1501.6832              1504.1734              1524.4137
 Red. masses --      1.0620                 1.0625                 1.0919
 Frc consts  --      1.4110                 1.4164                 1.4950
 IR Inten    --     13.4380                 8.8318                 3.0233

                     70                     71                     72
                      A                      A                      A
 Frequencies --   1530.6504              1653.1749              1839.2539
 Red. masses --      1.0912                 1.0992                10.3219
 Frc consts  --      1.5062                 1.7700                20.5728
 IR Inten    --      0.4873                23.5087               426.2672

                     73                     74                     75
                      A                      A                      A
 Frequencies --   2936.2058              2946.3449              2961.8408
 Red. masses --      1.0527                 1.0562                 1.1029
 Frc consts  --      5.3472                 5.4023                 5.7005
 IR Inten    --     46.0321                40.8987                56.2992

                     76                     77                     78
                      A                      A                      A
 Frequencies --   2967.7064              2974.2603              2978.0407
 Red. masses --      1.0394                 1.0530                 1.0842
 Frc consts  --      5.3934                 5.4885                 5.6655
 IR Inten    --     79.8579                74.6822                34.6034

                     79                     80                     81
                      A                      A                      A
 Frequencies --   2995.4516              3008.1929              3009.1740
 Red. masses --      1.0808                 1.0840                 1.1029
 Frc consts  --      5.7140                 5.7793                 5.8841
 IR Inten    --      3.9065                28.2290                61.8304

                     82                     83                     84
                      A                      A                      A
 Frequencies --   3020.6005              3037.7054              3048.3864
 Red. masses --      1.1033                 1.0858                 1.0623
 Frc consts  --      5.9312                 5.9033                 5.8163
 IR Inten    --     51.7872                39.1110                30.2638

                     85                     86                     87
                      A                      A                      A
 Frequencies --   3096.3696              3113.8073              3119.5039
 Red. masses --      1.1005                 1.0955                 1.0963
 Frc consts  --      6.2167                 6.2581                 6.2859
 IR Inten    --     20.3783                30.1804                25.5969

                     88                     89                     90
                      A                      A                      A
 Frequencies --   3510.0652              3600.9441              3633.0924
 Red. masses --      1.0491                 1.0925                 1.0774
 Frc consts  --      7.6157                 8.3467                 8.3784
 IR Inten    --      0.4044                 2.4772                24.4643

 - Thermochemistry -
 -------------------
 Temperature   298.150 Kelvin.  Pressure   1.00000 Atm.
 Atom     1 has atomic number  6 and mass  12.00000

 Molecular mass:   202.13174 amu.
 Principal axes and moments of inertia in atomic units:
                           1         2         3
     Eigenvalues --  2677.112113811.236136166.16806
           X            0.99558  -0.09395  -0.00058
           Y            0.09394   0.99547  -0.01465
           Z            0.00195   0.01453   0.99989
 This molecule is an asymmetric top.
 Rotational symmetry number  1.
 Warning -- assumption of classical behavior for rotation
           may cause significant error
 Rotational temperatures (Kelvin)      0.03235     0.02273     0.01405
 Rotational constants (GHZ):           0.67414     0.47353     0.29268
 Zero-point vibrational energy     728413.7 (Joules/Mol)
                                  174.09504 (Kcal/Mol)
 Warning -- explicit consideration of  24 degrees of freedom as
           vibrations may cause significant error
 Vibrational temperatures:     53.36    76.34    83.42    92.74   133.39
          (Kelvin)            139.22   169.00   198.12   221.51   285.12
                              324.62   337.48   352.08   365.19   421.89
                              455.18   466.36   546.28   614.94   657.52
                              728.54   796.84   812.73   866.37  1010.27
                             1074.85  1121.72  1151.02  1230.19  1283.59
                             1349.73  1431.16  1436.81  1480.50  1518.40
                             1556.08  1588.38  1605.56  1630.53  1638.21
                             1674.44  1677.31  1698.39  1700.99  1713.88
                             1762.25  1768.00  1771.95  1789.45  1810.80
                             1845.41  1870.05  1887.34  1905.17  1948.20
                             1964.70  1994.33  2024.53  2051.12  2053.28
                             2073.12  2129.75  2131.83  2133.06  2137.60
                             2138.11  2160.59  2164.17  2193.29  2202.26
                             2378.55  2646.28  4224.55  4239.13  4261.43
                             4269.87  4279.30  4284.74  4309.79  4328.12
                             4329.53  4345.97  4370.58  4385.95  4454.99
                             4480.07  4488.27  5050.20  5180.96  5227.21

 Zero-point correction=                           0.277438 (Hartree/Particle)
 Thermal correction to Energy=                    0.293583
 Thermal correction to Enthalpy=                  0.294527
 Thermal correction to Gibbs Free Energy=         0.232719
 Sum of electronic and zero-point Energies=           -688.718938
 Sum of electronic and thermal Energies=              -688.702793
 Sum of electronic and thermal Enthalpies=            -688.701848
 Sum of electronic and thermal Free Energies=         -688.763657

                     E (Thermal)             CV                S
                      KCal/Mol        Cal/Mol-Kelvin    Cal/Mol-Kelvin
 Total                  184.226             57.493            130.087
 Electronic               0.000              0.000              0.000
 Translational            0.889              2.981             41.816
 Rotational               0.889              2.981             32.509
 Vibrational            182.449             51.531             55.763
 Vibration     1          0.594              1.982              5.409
 Vibration     2          0.596              1.976              4.700
 Vibration     3          0.596              1.974              4.525
 Vibration     4          0.597              1.971              4.316
 Vibration     5          0.602              1.954              3.602
 Vibration     6          0.603              1.951              3.518
 Vibration     7          0.608              1.935              3.142
 Vibration     8          0.614              1.916              2.836
 Vibration     9          0.619              1.898              2.623
 Vibration    10          0.637              1.842              2.150
 Vibration    11          0.650              1.802              1.914
 Vibration    12          0.654              1.788              1.844
 Vibration    13          0.660              1.772              1.768
 Vibration    14          0.665              1.756              1.704
 Vibration    15          0.688              1.686              1.455
 Vibration    16          0.703              1.642              1.329
 Vibration    17          0.709              1.627              1.289
 Vibration    18          0.750              1.513              1.040
 Vibration    19          0.789              1.411              0.867
 Vibration    20          0.815              1.345              0.775
 Vibration    21          0.862              1.236              0.642
 Vibration    22          0.909              1.131              0.536
 Vibration    23          0.921              1.107              0.514
 Vibration    24          0.960              1.027              0.446

                           ! Non-Optimized Parameters !
 Normal termination of Gaussian 16 at Tue May 23 11:14:10 2023.
