 Gaussian 16, Revision A.03,
 Gaussian 16:  ES64L-G16RevA.03 25-Dec-2016

 -----------------------------
 # opt freq b3lyp/6-31g(2df,p)
 -----------------------------

 -------------------
 Title Card Required
 -------------------
 Symbolic Z-matrix:
 Charge =  0 Multiplicity = 1

 SCF Done:  E(RB3LYP) =  -829.177922575     A.U. after   12 cycles
 SCF Done:  E(RB3LYP) =  -829.185791032     A.U. after   11 cycles
 SCF Done:  E(RB3LYP) =  -829.187346049     A.U. after   10 cycles
 SCF Done:  E(RB3LYP) =  -829.187758997     A.U. after   10 cycles
 SCF Done:  E(RB3LYP) =  -829.187870304     A.U. after   10 cycles
 SCF Done:  E(RB3LYP) =  -829.187898188     A.U. after    9 cycles
 SCF Done:  E(RB3LYP) =  -829.187906349     A.U. after    8 cycles
 SCF Done:  E(RB3LYP) =  -829.187907455     A.U. after    6 cycles
 SCF Done:  E(RB3LYP) =  -829.187907946     A.U. after    7 cycles
 SCF Done:  E(RB3LYP) =  -829.187908057     A.U. after    6 cycles
 SCF Done:  E(RB3LYP) =  -829.187908121     A.U. after    7 cycles
 SCF Done:  E(RB3LYP) =  -829.187908143     A.U. after    6 cycles
 SCF Done:  E(RB3LYP) =  -829.187908151     A.U. after    6 cycles
 Optimization completed.
    -- Stationary point found.
 Normal termination of Gaussian 16 at Wed May 24 21:55:54 2023.

 ----------------------------------------------------------------------
 #N Geom=AllCheck Guess=TCheck SCRF=Check GenChk RB3LYP/6-31G(2df,p) Fr
 eq
 ----------------------------------------------------------------------

 Structure from the checkpoint file:  "COCCqCrOCCCOCNqCrCCCO.chk"
 -------------------
 Title Card Required
 -------------------
 Charge =  0 Multiplicity = 1

                         Standard orientation:
 ---------------------------------------------------------------------
 Center     Atomic      Atomic             Coordinates (Angstroms)
 Number     Number       Type             X           Y           Z
 ---------------------------------------------------------------------
      1          6           0        7.911547   -1.383995   -0.313814
      2          8           0        6.977985   -0.417111    0.101987
      3          6           0        5.674192   -0.674557   -0.368049
      4          6           0        4.752310    0.441764    0.120535
      5          6           0        5.168063    1.808198   -0.424414
      6          8           0        3.451680    0.052436   -0.296034
      7          6           0        2.386757    0.711252    0.355881
      8          6           0        1.084498    0.061067   -0.093826
      9          6           0       -0.137715    0.702676    0.548306
     10          8           0       -1.289303    0.042744    0.067617
     11          6           0       -2.486221    0.544243    0.614962
     12          7           0       -3.571290   -0.306615    0.198272
     13          6           0       -3.476607   -1.631547    0.799466
     14          6           0       -4.873182    0.325468    0.379249
     15          6           0       -6.000054   -0.383796   -0.378449
     16          6           0       -7.301410    0.420184   -0.363101
     17          8           0       -8.380942   -0.266922   -0.974940
     18          1           0        8.883258   -1.100510    0.098012
     19          1           0        7.989774   -1.430879   -1.411622
     20          1           0        7.649331   -2.389113    0.052778
     21          1           0        5.300570   -1.640611    0.006212
     22          1           0        5.651688   -0.715478   -1.470337
     23          1           0        4.798368    0.459214    1.222159
     24          1           0        5.061156    1.825209   -1.514253
     25          1           0        6.213975    1.998530   -0.172046
     26          1           0        4.561413    2.615505   -0.004890
     27          1           0        2.376604    1.786133    0.113602
     28          1           0        2.502925    0.629013    1.450657
     29          1           0        1.107477   -1.005057    0.154663
     30          1           0        1.001116    0.135498   -1.182958
     31          1           0       -0.181726    1.778509    0.303174
     32          1           0       -0.083129    0.628692    1.648596
     33          1           0       -2.680695    1.565904    0.250010
     34          1           0       -2.382810    0.599705    1.723757
     35          1           0       -2.463353   -2.009246    0.656918
     36          1           0       -4.169237   -2.322504    0.313830
     37          1           0       -3.700531   -1.622710    1.883903
     38          1           0       -4.793863    1.354337    0.006348
     39          1           0       -5.149479    0.401096    1.450796
     40          1           0       -6.206520   -1.369322    0.051517
     41          1           0       -5.674670   -0.544525   -1.414854
     42          1           0       -7.139844    1.406390   -0.829318
     43          1           0       -7.619233    0.604370    0.669488
     44          1           0       -8.141961   -0.426756   -1.893557
 ---------------------------------------------------------------------

 SCF Done:  E(RB3LYP) =  -829.187908151     A.U. after    1 cycles

 The electronic state is 1-A.
 Alpha  occ. eigenvalues --  -19.14068 -19.13939 -19.13630 -19.13169 -14.32060
 Alpha  occ. eigenvalues --  -10.24962 -10.23005 -10.22951 -10.22814 -10.22548
 Alpha  occ. eigenvalues --  -10.22427 -10.22171 -10.20960 -10.19419 -10.17942
 Alpha  occ. eigenvalues --  -10.17911 -10.16866  -1.04015  -1.03732  -1.02712
 Alpha  occ. eigenvalues --   -1.01283  -0.91822  -0.79600  -0.77413  -0.75816
 Alpha  occ. eigenvalues --   -0.70375  -0.70095  -0.68684  -0.65922  -0.63475
 Alpha  occ. eigenvalues --   -0.60629  -0.59351  -0.57701  -0.57587  -0.51091
 Alpha  occ. eigenvalues --   -0.50616  -0.50073  -0.49168  -0.48417  -0.48105
 Alpha  occ. eigenvalues --   -0.47549  -0.46551  -0.45738  -0.45175  -0.43477
 Alpha  occ. eigenvalues --   -0.42826  -0.41869  -0.41010  -0.40871  -0.39991
 Alpha  occ. eigenvalues --   -0.38762  -0.38459  -0.37922  -0.37444  -0.36432
 Alpha  occ. eigenvalues --   -0.35706  -0.35163  -0.34369  -0.33986  -0.33351
 Alpha  occ. eigenvalues --   -0.32299  -0.31966  -0.31730  -0.30486  -0.26541
 Alpha  occ. eigenvalues --   -0.25918  -0.25575  -0.24997  -0.21661
 Alpha virt. eigenvalues --    0.07828   0.08164   0.08673   0.09218   0.09941
 Alpha virt. eigenvalues --    0.10759   0.11692   0.12101   0.12363   0.13307
 Alpha virt. eigenvalues --    0.13382   0.13902   0.14729   0.14877   0.15646

 Mulliken charges:
               1
     1  C   -0.224148
     2  O   -0.234461
     3  C   -0.069312
     4  C    0.119243
     5  C   -0.401860
     6  O   -0.265246
     7  C   -0.061221
     8  C   -0.211565
     9  C   -0.056216
    10  O   -0.247102
    11  C   -0.007600
    12  N   -0.064272
    13  C   -0.333381
    14  C   -0.137678
    15  C   -0.219114
    16  C   -0.054799
    17  O   -0.418280
    18  H    0.125967
    19  H    0.104945
    20  H    0.104805
    21  H    0.091782
    22  H    0.091060
    23  H    0.072355
    24  H    0.117301
    25  H    0.136121
    26  H    0.111758
    27  H    0.089315
    28  H    0.084065
    29  H    0.113689
    30  H    0.118355
    31  H    0.085556
    32  H    0.086876
    33  H    0.085010
    34  H    0.057281
    35  H    0.138906
    36  H    0.121751
    37  H    0.086577
    38  H    0.098148
    39  H    0.078319
    40  H    0.111136
    41  H    0.098729
    42  H    0.085320
    43  H    0.111267
    44  H    0.280616
 Sum of Mulliken charges =  -0.00000

 Dipole moment (field-independent basis, Debye):
    X=              1.3503    Y=              0.7348    Z=              0.3537  Tot=              1.5775
 Quadrupole moment (field-independent basis, Debye-Ang):
   XX=           -119.8031   YY=           -103.1591   ZZ=           -103.2362
   XY=             -7.2745   XZ=              1.0022   YZ=              0.4839

  Exact polarizability: 212.132  -2.704 142.901   1.462   0.092 132.607
 Approx polarizability: 223.170   0.959 207.853   1.260   2.958 206.629

                      1                      2                      3
                      A                      A                      A
 Frequencies --     13.7933                15.4890                26.4050
 Red. masses --      4.3789                 3.3503                 3.4759
 Frc consts  --      0.0005                 0.0005                 0.0014
 IR Inten    --      0.0184                 0.1092                 0.5394

                      4                      5                      6
                      A                      A                      A
 Frequencies --     38.8180                55.9420                62.8369
 Red. masses --      4.2800                 2.5129                 2.0134
 Frc consts  --      0.0038                 0.0046                 0.0047
 IR Inten    --      0.0422                 2.6869                 2.3522

                      7                      8                      9
                      A                      A                      A
 Frequencies --     72.7489                80.5526                91.1469
 Red. masses --      2.5758                 2.5778                 2.7640
 Frc consts  --      0.0080                 0.0099                 0.0135
 IR Inten    --      1.7067                 1.7054                 1.9562

                     10                     11                     12
                      A                      A                      A
 Frequencies --    100.5846               119.8296               131.1835
 Red. masses --      2.5745                 3.0315                 2.4739
 Frc consts  --      0.0153                 0.0256                 0.0251
 IR Inten    --      0.8072                 2.3194                 0.1781

                     13                     14                     15
                      A                      A                      A
 Frequencies --    139.9296               142.5206               159.7936
 Red. masses --      2.6861                 2.8899                 4.3673
 Frc consts  --      0.0310                 0.0346                 0.0657
 IR Inten    --      1.1405                 1.2557                 1.3967

                     16                     17                     18
                      A                      A                      A
 Frequencies --    169.2958               202.7784               221.9863
 Red. masses --      2.1834                 2.9236                 1.1794
 Frc consts  --      0.0369                 0.0708                 0.0342
 IR Inten    --      2.0707                 3.1830                 1.0691

                     19                     20                     21
                      A                      A                      A
 Frequencies --    232.1884               241.6081               283.0732
 Red. masses --      1.2340                 1.2918                 2.7763
 Frc consts  --      0.0392                 0.0444                 0.1311
 IR Inten    --      3.9956                 2.3271                13.0025

                     22                     23                     24
                      A                      A                      A
 Frequencies --    304.6119               313.9777               332.0033
 Red. masses --      3.4467                 1.3753                 2.6385
 Frc consts  --      0.1884                 0.0799                 0.1714
 IR Inten    --      5.6102                79.2230                13.8661

                     25                     26                     27
                      A                      A                      A
 Frequencies --    344.5713               367.8166               384.0461
 Red. masses --      2.9680                 2.5154                 2.8988
 Frc consts  --      0.2076                 0.2005                 0.2519
 IR Inten    --      6.5544                 4.1983                 2.3428

                     28                     29                     30
                      A                      A                      A
 Frequencies --    432.0020               450.0015               513.3466
 Red. masses --      2.8813                 3.7627                 3.1102
 Frc consts  --      0.3168                 0.4489                 0.4829
 IR Inten    --      3.3022                 1.5972                 2.3422

                     31                     32                     33
                      A                      A                      A
 Frequencies --    520.7501               571.4419               597.4137
 Red. masses --      3.0277                 2.9267                 3.8194
 Frc consts  --      0.4837                 0.5631                 0.8031
 IR Inten    --     11.6561                 7.4804                 1.4898

                     34                     35                     36
                      A                      A                      A
 Frequencies --    768.5023               779.6704               856.1277
 Red. masses --      1.0949                 1.0822                 2.4996
 Frc consts  --      0.3810                 0.3876                 1.0794
 IR Inten    --      2.3498                 0.3720                 2.4839

                     37                     38                     39
                      A                      A                      A
 Frequencies --    872.1616               883.3351               891.8342
 Red. masses --      1.5153                 2.4387                 1.1540
 Frc consts  --      0.6791                 1.1211                 0.5408
 IR Inten    --      5.5806                10.5945                 0.0183

                     40                     41                     42
                      A                      A                      A
 Frequencies --    931.8393               946.5812               994.1467
 Red. masses --      1.2904                 2.1987                 3.7086
 Frc consts  --      0.6601                 1.1607                 2.1596
 IR Inten    --      4.1428                12.1270                19.4029

                     43                     44                     45
                      A                      A                      A
 Frequencies --   1011.8488              1028.5071              1051.6077
 Red. masses --      3.9973                 3.9166                 2.7161
 Frc consts  --      2.4113                 2.4410                 1.7697
 IR Inten    --     45.5552                15.5306                10.2200

                     46                     47                     48
                      A                      A                      A
 Frequencies --   1067.0582              1069.9655              1076.7014
 Red. masses --      2.6941                 2.1507                 2.5694
 Frc consts  --      1.8073                 1.4506                 1.7550
 IR Inten    --     15.9485               139.4084                82.8604

                     49                     50                     51
                      A                      A                      A
 Frequencies --   1083.0855              1091.3258              1111.8081
 Red. masses --      2.9506                 1.9365                 1.8449
 Frc consts  --      2.0393                 1.3588                 1.3437
 IR Inten    --     13.9959                11.0807                33.4153

                     52                     53                     54
                      A                      A                      A
 Frequencies --   1122.8042              1137.7143              1148.1197
 Red. masses --      3.1100                 2.8597                 1.9242
 Frc consts  --      2.3100                 2.1809                 1.4944
 IR Inten    --     14.0084                58.2377               173.0248

                     55                     56                     57
                      A                      A                      A
 Frequencies --   1151.5305              1158.1522              1172.6074
 Red. masses --      1.9135                 2.8329                 2.9006
 Frc consts  --      1.4950                 2.2388                 2.3499
 IR Inten    --    136.1371               236.3947                62.8832

                     58                     59                     60
                      A                      A                      A
 Frequencies --   1177.4396              1180.7475              1188.4435
 Red. masses --      2.1966                 1.7804                 1.6831
 Frc consts  --      1.7942                 1.4624                 1.4006
 IR Inten    --     65.7575                57.8845                11.6428

                     61                     62                     63
                      A                      A                      A
 Frequencies --   1198.9283              1227.4468              1233.5324
 Red. masses --      1.6914                 1.5230                 1.7434
 Frc consts  --      1.4325                 1.3520                 1.5629
 IR Inten    --      3.5798                21.9334                37.3593

                     64                     65                     66
                      A                      A                      A
 Frequencies --   1240.0255              1254.4560              1256.2075
 Red. masses --      1.5090                 1.4381                 1.2326
 Frc consts  --      1.3671                 1.3334                 1.1460
 IR Inten    --     16.5954                17.0417                14.0443

                     67                     68                     69
                      A                      A                      A
 Frequencies --   1291.2454              1303.2162              1303.8518
 Red. masses --      1.3279                 1.2581                 1.1953
 Frc consts  --      1.3045                 1.2590                 1.1972
 IR Inten    --      6.7581                 6.1063                 4.1346

                     70                     71                     72
                      A                      A                      A
 Frequencies --   1305.7147              1311.0211              1317.1030
 Red. masses --      1.1550                 1.1854                 1.4705
 Frc consts  --      1.1602                 1.2005                 1.5030
 IR Inten    --      2.9105                 5.0408                 3.2137

                     73                     74                     75
                      A                      A                      A
 Frequencies --   1339.2533              1343.9655              1377.8880
 Red. masses --      1.2665                 1.2789                 1.2448
 Frc consts  --      1.3383                 1.3611                 1.3924
 IR Inten    --     34.3955                 8.9379                 6.0346

                     76                     77                     78
                      A                      A                      A
 Frequencies --   1392.8553              1399.7903              1403.7347
 Red. masses --      1.2746                 1.4052                 1.3386
 Frc consts  --      1.4569                 1.6223                 1.5540
 IR Inten    --     37.2194                29.1338                82.8083

                     79                     80                     81
                      A                      A                      A
 Frequencies --   1416.9884              1423.8686              1424.9097
 Red. masses --      1.3761                 1.4045                 1.2578
 Frc consts  --      1.6279                 1.6777                 1.5047
 IR Inten    --     11.8527                 4.2014                44.7012

                     82                     83                     84
                      A                      A                      A
 Frequencies --   1442.0820              1445.0654              1476.6611
 Red. masses --      1.2757                 1.4019                 1.2570
 Frc consts  --      1.5631                 1.7248                 1.6149
 IR Inten    --      5.5507                14.4166                14.0628

                     85                     86                     87
                      A                      A                      A
 Frequencies --   1480.9965              1485.4027              1489.8597
 Red. masses --      1.1448                 1.0472                 1.1088
 Frc consts  --      1.4794                 1.3614                 1.4500
 IR Inten    --      2.9313                 5.1848                 4.1233

                     88                     89                     90
                      A                      A                      A
 Frequencies --   1493.2822              1495.5140              1498.4006
 Red. masses --      1.0528                 1.0824                 1.0801
 Frc consts  --      1.3832                 1.4264                 1.4288
 IR Inten    --      6.2700                 1.1790                 3.9364

                     91                     92                     93
                      A                      A                      A
 Frequencies --   1498.6015              1501.0587              1505.1999
 Red. masses --      1.0650                 1.0871                 1.0688
 Frc consts  --      1.4092                 1.4431                 1.4267
 IR Inten    --      3.2357                 7.8756                10.0027

                     94                     95                     96
                      A                      A                      A
 Frequencies --   1506.1276              1517.2918              1523.1702
 Red. masses --      1.0622                 1.0970                 1.1134
 Frc consts  --      1.4197                 1.4880                 1.5219
 IR Inten    --      9.7922                 0.8238                 1.2800

                     97                     98                     99
                      A                      A                      A
 Frequencies --   1528.3791              1529.4377              1538.7417
 Red. masses --      1.0873                 1.0899                 1.0914
 Frc consts  --      1.4964                 1.5022                 1.5225
 IR Inten    --      1.7277                 2.0213                 0.4903

                    100                    101                    102
                      A                      A                      A
 Frequencies --   2825.8307              2894.5934              2922.8789
 Red. masses --      1.0708                 1.0721                 1.0616
 Frc consts  --      5.0377                 5.2923                 5.3438
 IR Inten    --     70.4568                66.7872                87.2081

                    103                    104                    105
                      A                      A                      A
 Frequencies --   2941.5518              2951.6019              2957.8202
 Red. masses --      1.0546                 1.0611                 1.0559
 Frc consts  --      5.3762                 5.4468                 5.4429
 IR Inten    --     25.7922                56.4781                17.4219

                    106                    107                    108
                      A                      A                      A
 Frequencies --   2965.7084              2965.9617              2967.7159
 Red. masses --      1.0739                 1.0971                 1.0748
 Frc consts  --      5.5651                 5.6860                 5.5774
 IR Inten    --     35.1488                38.9550                65.4354

                    109                    110                    111
                      A                      A                      A
 Frequencies --   2973.6283              2974.4607              2985.2707
 Red. masses --      1.0472                 1.0843                 1.0984
 Frc consts  --      5.4556                 5.6523                 5.7674
 IR Inten    --     84.3874                49.0622                52.8395

                    112                    113                    114
                      A                      A                      A
 Frequencies --   3003.6070              3014.0231              3024.1186
 Red. masses --      1.1029                 1.1035                 1.0637
 Frc consts  --      5.8624                 5.9063                 5.7316
 IR Inten    --     83.7285                41.2630                17.5583

                    115                    116                    117
                      A                      A                      A
 Frequencies --   3036.0855              3041.4697              3052.4900
 Red. masses --      1.0850                 1.0362                 1.0585
 Frc consts  --      5.8925                 5.6476                 5.8109
 IR Inten    --     26.7146                17.9139                17.6780

                    118                    119                    120
                      A                      A                      A
 Frequencies --   3059.7460              3084.7090              3095.0163
 Red. masses --      1.0876                 1.0962                 1.0761
 Frc consts  --      5.9991                 6.1455                 6.0731
 IR Inten    --     22.8154                44.3325                35.3667

                    121                    122                    123
                      A                      A                      A
 Frequencies --   3098.8675              3111.6089              3112.5559
 Red. masses --      1.1051                 1.1012                 1.0961
 Frc consts  --      6.2525                 6.2821                 6.2565
 IR Inten    --     29.2302                27.9857                32.3156

                    124                    125                    126
                      A                      A                      A
 Frequencies --   3130.6018              3143.2985              3814.0334
 Red. masses --      1.1003                 1.1010                 1.0661
 Frc consts  --      6.3533                 6.4095                 9.1372
 IR Inten    --     16.6503                13.7591                16.0709

 - Thermochemistry -
 -------------------
 Temperature   298.150 Kelvin.  Pressure   1.00000 Atm.
 Atom     1 has atomic number  6 and mass  12.00000

 Molecular mass:   249.19401 amu.
 Principal axes and moments of inertia in atomic units:
                           1         2         3
     Eigenvalues --   929.21783********************
           X            1.00000  -0.00080  -0.00260
           Y            0.00081   1.00000   0.00295
           Z            0.00260  -0.00295   0.99999
 This molecule is an asymmetric top.
 Rotational symmetry number  1.
 Warning -- assumption of classical behavior for rotation
           may cause significant error
 Rotational temperatures (Kelvin)      0.09321     0.00373     0.00367
 Rotational constants (GHZ):           1.94222     0.07780     0.07651
 Zero-point vibrational energy    1032130.1 (Joules/Mol)
                                  246.68502 (Kcal/Mol)
 Warning -- explicit consideration of  33 degrees of freedom as
           vibrations may cause significant error
 Vibrational temperatures:     19.85    22.29    37.99    55.85    80.49
          (Kelvin)             90.41   104.67   115.90   131.14   144.72
                              172.41   188.74   201.33   205.06   229.91
                              243.58   291.75   319.39   334.07   347.62
                              407.28   438.27   451.74   477.68   495.76
                              529.21   552.56   621.55   647.45   738.59
                              749.24   822.18   859.55  1105.70  1121.77
                             1231.78  1254.85  1270.92  1283.15  1340.71
                             1361.92  1430.36  1455.82  1479.79  1513.03
                             1535.26  1539.44  1549.13  1558.32  1570.17
                             1599.64  1615.46  1636.92  1651.89  1656.80
                             1666.32  1687.12  1694.07  1698.83  1709.91
                             1724.99  1766.02  1774.78  1784.12  1804.88
                             1807.40  1857.81  1875.04  1875.95  1878.63
                             1886.27  1895.02  1926.89  1933.67  1982.47
                             2004.01  2013.99  2019.66  2038.73  2048.63
                             2050.13  2074.83  2079.13  2124.59  2130.82
                             2137.16  2143.58  2148.50  2151.71  2155.86
                             2156.15  2159.69  2165.65  2166.98  2183.04
                             2191.50  2199.00  2200.52  2213.91  4065.74
                             4164.67  4205.37  4232.24  4246.70  4255.64
                             4266.99  4267.36  4269.88  4278.39  4279.59
                             4295.14  4321.52  4336.51  4351.03  4368.25
                             4376.00  4391.85  4402.29  4438.21  4453.04
                             4458.58  4476.91  4478.27  4504.24  4522.51
                             5487.54

 Zero-point correction=                           0.393118 (Hartree/Particle)
 Thermal correction to Energy=                    0.415485
 Thermal correction to Enthalpy=                  0.416429
 Thermal correction to Gibbs Free Energy=         0.337016
 Sum of electronic and zero-point Energies=           -828.794791
 Sum of electronic and thermal Energies=              -828.772424
 Sum of electronic and thermal Enthalpies=            -828.771479
 Sum of electronic and thermal Free Energies=         -828.850892

                     E (Thermal)             CV                S
                      KCal/Mol        Cal/Mol-Kelvin    Cal/Mol-Kelvin
 Total                  260.720             76.955            167.138
 Electronic               0.000              0.000              0.000
 Translational            0.889              2.981             42.440
 Rotational               0.889              2.981             34.585
 Vibrational            258.943             70.993             90.113
 Vibration     1          0.593              1.986              7.372
 Vibration     2          0.593              1.986              7.142
 Vibration     3          0.593              1.985              6.083
 Vibration     4          0.594              1.981              5.319
 Vibration     5          0.596              1.975              4.595
 Vibration     6          0.597              1.972              4.366
 Vibration     7          0.599              1.967              4.078
 Vibration     8          0.600              1.962              3.877
 Vibration     9          0.602              1.955              3.635
 Vibration    10          0.604              1.949              3.443
 Vibration    11          0.609              1.933              3.103
 Vibration    12          0.612              1.922              2.929
 Vibration    13          0.615              1.913              2.805
 Vibration    14          0.616              1.911              2.770
 Vibration    15          0.622              1.892              2.552
 Vibration    16          0.625              1.880              2.443
 Vibration    17          0.639              1.836              2.108
 Vibration    18          0.648              1.808              1.943
 Vibration    19          0.653              1.792              1.862
 Vibration    20          0.658              1.777              1.791
 Vibration    21          0.682              1.705              1.515
 Vibration    22          0.696              1.665              1.391
 Vibration    23          0.702              1.647              1.341
 Vibration    24          0.714              1.612              1.250
 Vibration    25          0.723              1.586              1.191
 Vibration    26          0.740              1.538              1.089
 Vibration    27          0.753              1.504              1.023
 Vibration    28          0.793              1.401              0.852
 Vibration    29          0.809              1.361              0.796
 Vibration    30          0.868              1.220              0.626
 Vibration    31          0.876              1.204              0.608
 Vibration    32          0.928              1.093              0.501
 Vibration    33          0.955              1.037              0.454

 Optimization completed.
    -- Stationary point found.
 Normal termination of Gaussian 16 at Thu May 25 01:29:07 2023.
