 Gaussian 16, Revision A.03,
 Gaussian 16:  ES64L-G16RevA.03 25-Dec-2016

 -----------------------------
 # opt freq b3lyp/6-31g(2df,p)
 -----------------------------

 -------------------
 Title Card Required
 -------------------
 Symbolic Z-matrix:
 Charge =  0 Multiplicity = 1

 SCF Done:  E(RB3LYP) =  -808.537112760     A.U. after   12 cycles
 SCF Done:  E(RB3LYP) =  -808.556146781     A.U. after   13 cycles
 SCF Done:  E(RB3LYP) =  -808.562583746     A.U. after   11 cycles
 SCF Done:  E(RB3LYP) =  -808.565273541     A.U. after   11 cycles
 SCF Done:  E(RB3LYP) =  -808.567178756     A.U. after   11 cycles
 SCF Done:  E(RB3LYP) =  -808.568072734     A.U. after   11 cycles
 SCF Done:  E(RB3LYP) =  -808.568341522     A.U. after   11 cycles
 SCF Done:  E(RB3LYP) =  -808.568424784     A.U. after   10 cycles
 SCF Done:  E(RB3LYP) =  -808.568447890     A.U. after    9 cycles
 SCF Done:  E(RB3LYP) =  -808.568476820     A.U. after    9 cycles
 SCF Done:  E(RB3LYP) =  -808.573078890     A.U. after   10 cycles
 SCF Done:  E(RB3LYP) =  -808.573174413     A.U. after   10 cycles
 SCF Done:  E(RB3LYP) =  -808.573164923     A.U. after   10 cycles
 SCF Done:  E(RB3LYP) =  -808.573207986     A.U. after   10 cycles
 SCF Done:  E(RB3LYP) =  -808.573210259     A.U. after    9 cycles
 SCF Done:  E(RB3LYP) =  -808.573211366     A.U. after    9 cycles
 SCF Done:  E(RB3LYP) =  -808.573211918     A.U. after    7 cycles
 SCF Done:  E(RB3LYP) =  -808.573212091     A.U. after    7 cycles
 SCF Done:  E(RB3LYP) =  -808.573212111     A.U. after    6 cycles
 Optimization completed.
    -- Stationary point found.
 Normal termination of Gaussian 16 at Mon May 22 14:47:17 2023.

 ----------------------------------------------------------------------
 #N Geom=AllCheck Guess=TCheck SCRF=Check GenChk RB3LYP/6-31G(2df,p) Fr
 eq
 ----------------------------------------------------------------------

 Structure from the checkpoint file:  "COCOC1CCqOCqOrCqCrCrCCO1.chk"
 -------------------
 Title Card Required
 -------------------
 Charge =  0 Multiplicity = 1

                         Standard orientation:
 ---------------------------------------------------------------------
 Center     Atomic      Atomic             Coordinates (Angstroms)
 Number     Number       Type             X           Y           Z
 ---------------------------------------------------------------------
      1          6           0       -5.024231    2.081077    0.034437
      2          8           0       -4.301699    0.882644   -0.128652
      3          6           0       -3.019304    1.091948   -0.673505
      4          8           0       -2.335355   -0.109918   -0.720010
      5          6           0       -1.954455   -0.647650    0.556790
      6          6           0       -0.543143   -0.171665    0.923987
      7          6           0        0.502328   -0.772999   -0.023517
      8          8           0        1.837499   -0.503454    0.407450
      9          6           0        2.433060    0.664372   -0.090750
     10          8           0        1.860965    1.831182    0.471499
     11          6           0        3.943899    0.565783    0.169267
     12          6           0        4.540802   -0.685741   -0.486339
     13          6           0        4.660152    1.838891   -0.298361
     14          6           0        0.323707   -2.289089   -0.080769
     15          6           0       -1.126689   -2.637797   -0.420218
     16          8           0       -2.043836   -2.036694    0.493666
     17          1           0       -5.987936    1.821056    0.477041
     18          1           0       -5.202061    2.587554   -0.927306
     19          1           0       -4.504780    2.787426    0.701677
     20          1           0       -2.484653    1.852786   -0.070825
     21          1           0       -3.089694    1.452681   -1.711079
     22          1           0       -2.691227   -0.338980    1.303782
     23          1           0       -0.323769   -0.498610    1.947112
     24          1           0       -0.492022    0.919582    0.902208
     25          1           0        0.357619   -0.350382   -1.027692
     26          1           0        2.235671    0.763633   -1.169732
     27          1           0        2.023622    1.791604    1.422242
     28          1           0        4.060940    0.472760    1.259740
     29          1           0        4.421881   -0.647671   -1.576170
     30          1           0        4.053188   -1.592125   -0.123679
     31          1           0        5.612552   -0.757212   -0.275766
     32          1           0        4.579287    1.953816   -1.385966
     33          1           0        5.724841    1.794713   -0.049387
     34          1           0        4.230961    2.731473    0.161768
     35          1           0        0.588233   -2.710743    0.896022
     36          1           0        0.999219   -2.725128   -0.824488
     37          1           0       -1.300157   -3.713948   -0.342493
     38          1           0       -1.369076   -2.327151   -1.444764
 ---------------------------------------------------------------------

 SCF Done:  E(RB3LYP) =  -808.573212111     A.U. after    1 cycles

 The electronic state is 1-A.
 Alpha  occ. eigenvalues --  -19.14467 -19.14303 -19.14248 -19.14172 -19.13850
 Alpha  occ. eigenvalues --  -10.27501 -10.27308 -10.27255 -10.23173 -10.22866
 Alpha  occ. eigenvalues --  -10.22321 -10.18802 -10.17808 -10.17483 -10.17120
 Alpha  occ. eigenvalues --  -10.16997  -1.07866  -1.06209  -1.03956  -0.99833
 Alpha  occ. eigenvalues --   -0.99648  -0.80642  -0.78184  -0.76264  -0.70917
 Alpha  occ. eigenvalues --   -0.68069  -0.67270  -0.65511  -0.63328  -0.61433
 Alpha  occ. eigenvalues --   -0.58399  -0.55636  -0.53109  -0.51132  -0.50357
 Alpha  occ. eigenvalues --   -0.49770  -0.48707  -0.47393  -0.46349  -0.45287
 Alpha  occ. eigenvalues --   -0.44436  -0.43239  -0.42265  -0.42008  -0.41040
 Alpha  occ. eigenvalues --   -0.40694  -0.39309  -0.38311  -0.37919  -0.37780
 Alpha  occ. eigenvalues --   -0.36911  -0.35455  -0.34161  -0.33555  -0.33294
 Alpha  occ. eigenvalues --   -0.33161  -0.33020  -0.31369  -0.30315  -0.29100
 Alpha  occ. eigenvalues --   -0.26953  -0.26177  -0.25751  -0.25526
 Alpha virt. eigenvalues --    0.07698   0.08445   0.09431   0.09705   0.10503
 Alpha virt. eigenvalues --    0.12643   0.12903   0.13502   0.13598   0.14349
 Alpha virt. eigenvalues --    0.15127   0.15404   0.15857   0.16016   0.16481

 Mulliken charges:
               1
     1  C   -0.231272
     2  O   -0.221797
     3  C    0.032949
     4  O   -0.252610
     5  C    0.187818
     6  C   -0.268535
     7  C    0.131676
     8  O   -0.264246
     9  C    0.186687
    10  O   -0.411319
    11  C   -0.008954
    12  C   -0.391439
    13  C   -0.385986
    14  C   -0.228594
    15  C   -0.092423
    16  O   -0.248088
    17  H    0.134587
    18  H    0.107918
    19  H    0.105797
    20  H    0.074971
    21  H    0.100400
    22  H    0.096834
    23  H    0.102501
    24  H    0.113191
    25  H    0.084916
    26  H    0.078044
    27  H    0.276072
    28  H    0.070169
    29  H    0.109056
    30  H    0.130115
    31  H    0.109251
    32  H    0.112842
    33  H    0.109971
    34  H    0.120365
    35  H    0.109051
    36  H    0.098362
    37  H    0.109152
    38  H    0.112567
 Sum of Mulliken charges =  -0.00000

 Dipole moment (field-independent basis, Debye):
    X=              1.0405    Y=              1.6043    Z=              0.3368  Tot=              1.9417
 Quadrupole moment (field-independent basis, Debye-Ang):
   XX=            -96.7244   YY=            -96.0893   ZZ=            -93.9885
   XY=             -9.2168   XZ=              0.6887   YZ=              3.1493

  Exact polarizability: 162.789  -4.485 139.852  -2.153   2.129 116.306
 Approx polarizability: 189.563  -3.998 191.771  -1.381   0.080 185.785

                      1                      2                      3
                      A                      A                      A
 Frequencies --     18.5656                21.1115                53.1362
 Red. masses --      4.1451                 3.5865                 3.0703
 Frc consts  --      0.0008                 0.0009                 0.0051
 IR Inten    --      0.7059                 0.2661                 0.2223

                      4                      5                      6
                      A                      A                      A
 Frequencies --     62.6287                72.7746                83.7960
 Red. masses --      3.5374                 3.5031                 3.3303
 Frc consts  --      0.0082                 0.0109                 0.0138
 IR Inten    --      0.1278                 2.0953                 0.7959

                      7                      8                      9
                      A                      A                      A
 Frequencies --    104.7132               126.6368               166.8119
 Red. masses --      3.0740                 3.1784                 3.1074
 Frc consts  --      0.0199                 0.0300                 0.0509
 IR Inten    --      0.9490                 5.9600                 1.3828

                     10                     11                     12
                      A                      A                      A
 Frequencies --    206.6313               209.2881               219.2880
 Red. masses --      1.2756                 1.6128                 1.4007
 Frc consts  --      0.0321                 0.0416                 0.0397
 IR Inten    --      0.2320                 0.6098                 3.7222

                     13                     14                     15
                      A                      A                      A
 Frequencies --    236.8848               257.0356               271.5039
 Red. masses --      1.5144                 2.2564                 2.2100
 Frc consts  --      0.0501                 0.0878                 0.0960
 IR Inten    --      0.8023                 0.4218                 0.0534

                     16                     17                     18
                      A                      A                      A
 Frequencies --    281.1138               308.2262               321.9397
 Red. masses --      3.1497                 2.7193                 2.9330
 Frc consts  --      0.1467                 0.1522                 0.1791
 IR Inten    --      5.4461                 1.2060                 1.6739

                     19                     20                     21
                      A                      A                      A
 Frequencies --    362.8054               371.2072               388.1368
 Red. masses --      1.4590                 2.4596                 2.4302
 Frc consts  --      0.1131                 0.1997                 0.2157
 IR Inten    --     96.5609                28.8876                 9.8359

                     22                     23                     24
                      A                      A                      A
 Frequencies --    417.4879               456.6102               493.7068
 Red. masses --      2.4458                 3.6804                 3.7109
 Frc consts  --      0.2512                 0.4521                 0.5329
 IR Inten    --      1.1229                27.2669                 3.6180

                     25                     26                     27
                      A                      A                      A
 Frequencies --    509.8924               519.3960               533.3717
 Red. masses --      2.9107                 3.3420                 4.3971
 Frc consts  --      0.4459                 0.5312                 0.7370
 IR Inten    --      1.6169                 4.0318                 2.8362

                     28                     29                     30
                      A                      A                      A
 Frequencies --    604.7675               631.8426               738.5360
 Red. masses --      4.4354                 4.3193                 3.4249
 Frc consts  --      0.9558                 1.0160                 1.1006
 IR Inten    --     17.6642                15.0687                14.2563

                     31                     32                     33
                      A                      A                      A
 Frequencies --    829.5723               833.7146               862.8026
 Red. masses --      3.0470                 1.8461                 2.1219
 Frc consts  --      1.2355                 0.7560                 0.9307
 IR Inten    --     15.6754                 9.7904                12.8860

                     34                     35                     36
                      A                      A                      A
 Frequencies --    885.4128               918.0595               932.3105
 Red. masses --      2.7227                 2.3236                 1.1820
 Frc consts  --      1.2576                 1.1538                 0.6053
 IR Inten    --     19.6360                10.3262                 0.5827

                     37                     38                     39
                      A                      A                      A
 Frequencies --    934.2707               960.0055               966.3180
 Red. masses --      1.8775                 2.1928                 1.4872
 Frc consts  --      0.9655                 1.1907                 0.8182
 IR Inten    --     17.5769                59.3146                21.0231

                     40                     41                     42
                      A                      A                      A
 Frequencies --    993.7194               995.1736              1023.0365
 Red. masses --      2.4995                 2.8235                 2.6870
 Frc consts  --      1.4542                 1.6475                 1.6569
 IR Inten    --     44.3844                41.2069                78.0177

                     43                     44                     45
                      A                      A                      A
 Frequencies --   1046.8583              1070.1289              1106.9648
 Red. masses --      3.5089                 3.2738                 3.1360
 Frc consts  --      2.2657                 2.2089                 2.2641
 IR Inten    --    115.8606                41.8018               289.0219

                     46                     47                     48
                      A                      A                      A
 Frequencies --   1114.4141              1117.7135              1128.9267
 Red. masses --      2.8395                 1.9669                 4.9675
 Frc consts  --      2.0777                 1.4477                 3.7301
 IR Inten    --     36.7502                35.3261               263.9173

                     49                     50                     51
                      A                      A                      A
 Frequencies --   1138.6541              1153.6996              1156.8301
 Red. masses --      2.3349                 2.5494                 3.3565
 Frc consts  --      1.7837                 1.9993                 2.6466
 IR Inten    --     40.8818               135.6793               188.1660

                     52                     53                     54
                      A                      A                      A
 Frequencies --   1166.4915              1182.9077              1194.0360
 Red. masses --      1.6877                 1.9330                 1.4602
 Frc consts  --      1.3530                 1.5936                 1.2266
 IR Inten    --     34.0053                 0.4840                24.1498

                     55                     56                     57
                      A                      A                      A
 Frequencies --   1195.1425              1214.9299              1236.2195
 Red. masses --      1.6707                 2.3656                 1.8606
 Frc consts  --      1.4060                 2.0573                 1.6753
 IR Inten    --      1.5660                73.8144                26.4332

                     58                     59                     60
                      A                      A                      A
 Frequencies --   1272.0930              1276.0967              1278.3890
 Red. masses --      1.3971                 1.4427                 1.3140
 Frc consts  --      1.3320                 1.3842                 1.2652
 IR Inten    --      4.9217                20.3338                 1.9511

                     61                     62                     63
                      A                      A                      A
 Frequencies --   1294.7782              1313.2871              1330.4595
 Red. masses --      1.1385                 1.4298                 1.2812
 Frc consts  --      1.1245                 1.4529                 1.3362
 IR Inten    --      8.3840                14.4704                16.7949

                     64                     65                     66
                      A                      A                      A
 Frequencies --   1337.9212              1349.4556              1361.0553
 Red. masses --      1.3471                 1.3287                 1.3008
 Frc consts  --      1.4207                 1.4256                 1.4197
 IR Inten    --      6.5645                37.8737                 0.3925

                     67                     68                     69
                      A                      A                      A
 Frequencies --   1382.5472              1384.6763              1396.3250
 Red. masses --      1.3094                 1.4238                 1.2638
 Frc consts  --      1.4747                 1.6084                 1.4518
 IR Inten    --      9.1484                28.2870                 6.0466

                     70                     71                     72
                      A                      A                      A
 Frequencies --   1397.0191              1408.9699              1426.6599
 Red. masses --      1.2772                 1.2915                 1.3225
 Frc consts  --      1.4686                 1.5106                 1.5859
 IR Inten    --      1.3075                25.2558                14.4584

                     73                     74                     75
                      A                      A                      A
 Frequencies --   1433.4627              1435.5649              1447.8542
 Red. masses --      1.2809                 1.2656                 1.1745
 Frc consts  --      1.5507                 1.5367                 1.4506
 IR Inten    --     10.2230                21.4110                42.0946

                     76                     77                     78
                      A                      A                      A
 Frequencies --   1476.9592              1483.7039              1488.7141
 Red. masses --      1.0945                 1.1212                 1.0481
 Frc consts  --      1.4067                 1.4543                 1.3686
 IR Inten    --      0.7811                 5.9532                 1.4094

                     79                     80                     81
                      A                      A                      A
 Frequencies --   1488.8725              1491.7296              1494.2410
 Red. masses --      1.0755                 1.0472                 1.0982
 Frc consts  --      1.4046                 1.3730                 1.4447
 IR Inten    --      3.8280                 0.6308                 5.4536

                     82                     83                     84
                      A                      A                      A
 Frequencies --   1501.0442              1508.1546              1511.0688
 Red. masses --      1.0465                 1.0884                 1.0924
 Frc consts  --      1.3892                 1.4586                 1.4696
 IR Inten    --      5.9995                 2.1835                 3.9525

                     85                     86                     87
                      A                      A                      A
 Frequencies --   1515.6055              1533.1343              2904.8084
 Red. masses --      1.0641                 1.0896                 1.0675
 Frc consts  --      1.4402                 1.5090                 5.3073
 IR Inten    --     12.5414                 1.6063                55.4994

                     88                     89                     90
                      A                      A                      A
 Frequencies --   2970.0352              2983.5781              2998.6932
 Red. masses --      1.0390                 1.0807                 1.0847
 Frc consts  --      5.3997                 5.6681                 5.7469
 IR Inten    --     64.9333                 1.7881                29.7714

                     91                     92                     93
                      A                      A                      A
 Frequencies --   3001.5722              3007.0585              3013.6444
 Red. masses --      1.0905                 1.0822                 1.1029
 Frc consts  --      5.7887                 5.7656                 5.9017
 IR Inten    --     69.2709                24.9569                53.6592

                     94                     95                     96
                      A                      A                      A
 Frequencies --   3026.5233              3029.0661              3034.6112
 Red. masses --      1.0667                 1.0395                 1.0395
 Frc consts  --      5.7567                 5.6192                 5.6399
 IR Inten    --     32.8372                16.5274                43.0434

                     97                     98                     99
                      A                      A                      A
 Frequencies --   3037.6336              3045.8883              3077.2286
 Red. masses --      1.0594                 1.0642                 1.0870
 Frc consts  --      5.7593                 5.8171                 6.0643
 IR Inten    --     16.4800                16.4998                29.3472

                    100                    101                    102
                      A                      A                      A
 Frequencies --   3085.6603              3090.9411              3097.6555
 Red. masses --      1.1011                 1.0988                 1.0984
 Frc consts  --      6.1771                 6.1850                 6.2100
 IR Inten    --     32.8224                 6.3734                57.9362

                    103                    104                    105
                      A                      A                      A
 Frequencies --   3099.2228              3108.6366              3122.1019
 Red. masses --      1.1010                 1.0993                 1.0955
 Frc consts  --      6.2306                 6.2588                 6.2914
 IR Inten    --     36.3740                17.9781                24.6785

                    106                    107                    108
                      A                      A                      A
 Frequencies --   3126.7585              3134.9821              3782.2964
 Red. masses --      1.1000                 1.0989                 1.0652
 Frc consts  --      6.3362                 6.3630                 8.9782
 IR Inten    --     19.6276                20.5232                16.9323

 - Thermochemistry -
 -------------------
 Temperature   298.150 Kelvin.  Pressure   1.00000 Atm.
 Atom     1 has atomic number  6 and mass  12.00000

 Molecular mass:   234.14672 amu.
 Principal axes and moments of inertia in atomic units:
                           1         2         3
     Eigenvalues --  2028.843727693.068239223.18772
           X            0.99993  -0.01065  -0.00411
           Y            0.01068   0.99991   0.00784
           Z            0.00403  -0.00788   0.99996
 This molecule is an asymmetric top.
 Rotational symmetry number  1.
 Warning -- assumption of classical behavior for rotation
           may cause significant error
 Rotational temperatures (Kelvin)      0.04269     0.01126     0.00939
 Rotational constants (GHZ):           0.88954     0.23459     0.19567
 Zero-point vibrational energy     874509.7 (Joules/Mol)
                                  209.01282 (Kcal/Mol)
 Warning -- explicit consideration of  28 degrees of freedom as
           vibrations may cause significant error
 Vibrational temperatures:     26.71    30.37    76.45    90.11   104.71
          (Kelvin)            120.56   150.66   182.20   240.01   297.30
                              301.12   315.51   340.82   369.82   390.63
                              404.46   443.47   463.20   522.00   534.08
                              558.44   600.67   656.96   710.33   733.62
                              747.29   767.40   870.13   909.08  1062.59
                             1193.57  1199.53  1241.38  1273.91  1320.88
                             1341.39  1344.21  1381.23  1390.32  1429.74
                             1431.83  1471.92  1506.20  1539.68  1592.68
                             1603.39  1608.14  1624.27  1638.27  1659.92
                             1664.42  1678.32  1701.94  1717.95  1719.54
                             1748.01  1778.64  1830.26  1836.02  1839.32
                             1862.90  1889.53  1914.23  1924.97  1941.57
                             1958.26  1989.18  1992.24  2009.00  2010.00
                             2027.19  2052.65  2062.43  2065.46  2083.14
                             2125.01  2134.72  2141.93  2142.16  2146.27
                             2149.88  2159.67  2169.90  2174.09  2180.62
                             2205.84  4179.37  4273.22  4292.70  4314.45
                             4318.59  4326.49  4335.96  4354.49  4358.15
                             4366.13  4370.48  4382.35  4427.45  4439.58
                             4447.17  4456.84  4459.09  4472.63  4492.01
                             4498.71  4510.54  5441.88

 Zero-point correction=                           0.333083 (Hartree/Particle)
 Thermal correction to Energy=                    0.351187
 Thermal correction to Enthalpy=                  0.352131
 Thermal correction to Gibbs Free Energy=         0.284960
 Sum of electronic and zero-point Energies=           -808.240129
 Sum of electronic and thermal Energies=              -808.222025
 Sum of electronic and thermal Enthalpies=            -808.221081
 Sum of electronic and thermal Free Energies=         -808.288252

                     E (Thermal)             CV                S
                      KCal/Mol        Cal/Mol-Kelvin    Cal/Mol-Kelvin
 Total                  220.373             66.572            141.373
 Electronic               0.000              0.000              0.000
 Translational            0.889              2.981             42.254
 Rotational               0.889              2.981             33.331
 Vibrational            218.596             60.610             65.788
 Vibration     1          0.593              1.986              6.782
 Vibration     2          0.593              1.985              6.527
 Vibration     3          0.596              1.976              4.697
 Vibration     4          0.597              1.972              4.373
 Vibration     5          0.599              1.967              4.077
 Vibration     6          0.601              1.960              3.800
 Vibration     7          0.605              1.945              3.365
 Vibration     8          0.611              1.926              2.996
 Vibration     9          0.624              1.883              2.471
 Vibration    10          0.641              1.830              2.073
 Vibration    11          0.642              1.827              2.050
 Vibration    12          0.647              1.812              1.965
 Vibration    13          0.656              1.784              1.826
 Vibration    14          0.667              1.751              1.682
 Vibration    15          0.675              1.726              1.587
 Vibration    16          0.681              1.709              1.527
 Vibration    17          0.698              1.658              1.372
 Vibration    18          0.707              1.631              1.300
 Vibration    19          0.737              1.549              1.110
 Vibration    20          0.743              1.531              1.075
 Vibration    21          0.756              1.496              1.007
 Vibration    22          0.781              1.432              0.901
 Vibration    23          0.815              1.346              0.776
 Vibration    24          0.849              1.264              0.674
 Vibration    25          0.865              1.228              0.634
 Vibration    26          0.874              1.207              0.611
 Vibration    27          0.888              1.176              0.580
 Vibration    28          0.963              1.022              0.442

 Optimization completed.
    -- Stationary point found.
 Normal termination of Gaussian 16 at Mon May 22 18:04:39 2023.
