 Gaussian 16, Revision A.03,
 Gaussian 16:  ES64L-G16RevA.03 25-Dec-2016

 -----------------------------
 # opt freq b3lyp/6-31g(2df,p)
 -----------------------------

 -------------------
 Title Card Required
 -------------------
 Symbolic Z-matrix:
 Charge =  0 Multiplicity = 1

 SCF Done:  E(RB3LYP) =  -686.980389294     A.U. after   13 cycles
 SCF Done:  E(RB3LYP) =  -686.993304275     A.U. after   14 cycles
 SCF Done:  E(RB3LYP) =  -686.998548965     A.U. after   12 cycles
 SCF Done:  E(RB3LYP) =  -687.000086563     A.U. after   13 cycles
 SCF Done:  E(RB3LYP) =  -687.002687002     A.U. after   14 cycles
 SCF Done:  E(RB3LYP) =  -687.004936994     A.U. after   13 cycles
 SCF Done:  E(RB3LYP) =  -687.007373294     A.U. after   13 cycles
 SCF Done:  E(RB3LYP) =  -687.008887026     A.U. after   13 cycles
 SCF Done:  E(RB3LYP) =  -687.010642789     A.U. after   13 cycles
 SCF Done:  E(RB3LYP) =  -687.012475867     A.U. after   14 cycles
 SCF Done:  E(RB3LYP) =  -687.017714695     A.U. after   13 cycles
 SCF Done:  E(RB3LYP) =  -687.017882711     A.U. after   13 cycles
 SCF Done:  E(RB3LYP) =  -687.018067649     A.U. after   11 cycles
 SCF Done:  E(RB3LYP) =  -687.018107894     A.U. after   10 cycles
 SCF Done:  E(RB3LYP) =  -687.018135669     A.U. after   11 cycles
 SCF Done:  E(RB3LYP) =  -687.018141215     A.U. after   10 cycles
 SCF Done:  E(RB3LYP) =  -687.018143637     A.U. after    8 cycles
 SCF Done:  E(RB3LYP) =  -687.018144451     A.U. after    8 cycles
 SCF Done:  E(RB3LYP) =  -687.018144513     A.U. after    7 cycles
 Optimization completed.
    -- Stationary point found.
 Normal termination of Gaussian 16 at Tue May 23 03:04:09 2023.

 ----------------------------------------------------------------------
 #N Geom=AllCheck Guess=TCheck SCRF=Check GenChk RB3LYP/6-31G(2df,p) Fr
 eq
 ----------------------------------------------------------------------

 Structure from the checkpoint file:  "COCqdCOOCqCrOOrCO.chk"
 -------------------
 Title Card Required
 -------------------
 Charge =  0 Multiplicity = 1

                         Standard orientation:
 ---------------------------------------------------------------------
 Center     Atomic      Atomic             Coordinates (Angstroms)
 Number     Number       Type             X           Y           Z
 ---------------------------------------------------------------------
      1          6           0       -1.907831    2.378602   -0.205670
      2          8           0       -2.689820    1.189543   -0.066562
      3          6           0       -2.096974   -0.012457    0.009775
      4          6           0       -0.817486   -0.356210   -0.247372
      5          8           0        0.087607    0.502136   -0.776876
      6          8           0        1.091014    0.884009    0.309139
      7          6           0        2.320639    0.395828   -0.090135
      8          6           0        3.379670    1.091262    0.754149
      9          8           0        2.287206   -1.020691    0.156649
     10          8           0        3.378350   -1.596068   -0.597326
     11          6           0       -3.126569   -1.052657    0.402364
     12          8           0       -2.689364   -2.387547    0.295584
     13          1           0       -2.608347    3.202546   -0.057499
     14          1           0       -1.459128    2.437879   -1.199587
     15          1           0       -1.113266    2.417704    0.544266
     16          1           0       -0.483230   -1.370171   -0.059237
     17          1           0        2.482530    0.544452   -1.164088
     18          1           0        3.153324    0.966985    1.816242
     19          1           0        3.421594    2.156744    0.516364
     20          1           0        4.352944    0.643835    0.537711
     21          1           0        3.934154   -1.925241    0.122624
     22          1           0       -4.037558   -0.858003   -0.185593
     23          1           0       -3.396717   -0.900235    1.454022
     24          1           0       -2.474927   -2.553765   -0.628749
 ---------------------------------------------------------------------

 SCF Done:  E(RB3LYP) =  -687.018144513     A.U. after    1 cycles

 The electronic state is 1-A.
 Alpha  occ. eigenvalues --  -19.19692 -19.19239 -19.19189 -19.18922 -19.17960
 Alpha  occ. eigenvalues --  -19.14500 -10.27957 -10.24773 -10.23923 -10.23200
 Alpha  occ. eigenvalues --  -10.21169 -10.18571  -1.12555  -1.09629  -1.07200
 Alpha  occ. eigenvalues --   -1.02774  -0.96577  -0.88751  -0.77850  -0.73954
 Alpha  occ. eigenvalues --   -0.69261  -0.67463  -0.60340  -0.56876  -0.54403
 Alpha  occ. eigenvalues --   -0.52583  -0.52150  -0.49069  -0.48241  -0.46864
 Alpha  occ. eigenvalues --   -0.45940  -0.45815  -0.43503  -0.42967  -0.41323
 Alpha  occ. eigenvalues --   -0.40339  -0.39229  -0.38392  -0.37326  -0.35298
 Alpha  occ. eigenvalues --   -0.34667  -0.33051  -0.31776  -0.30139  -0.28262
 Alpha  occ. eigenvalues --   -0.26716  -0.25999  -0.22111
 Alpha virt. eigenvalues --   -0.03109   0.03259   0.05917   0.07981   0.08324
 Alpha virt. eigenvalues --    0.10763   0.12892   0.13263   0.13355   0.14891
 Alpha virt. eigenvalues --    0.15461   0.16075   0.16695   0.17502   0.17950

 Mulliken charges:
               1
     1  C   -0.237285
     2  O   -0.257371
     3  C    0.279974
     4  C   -0.092583
     5  O   -0.194957
     6  O   -0.201184
     7  C    0.297239
     8  C   -0.419440
     9  O   -0.201124
    10  O   -0.324465
    11  C   -0.122385
    12  O   -0.401792
    13  H    0.126493
    14  H    0.141644
    15  H    0.146388
    16  H    0.122664
    17  H    0.093430
    18  H    0.135622
    19  H    0.132228
    20  H    0.125775
    21  H    0.313800
    22  H    0.111995
    23  H    0.137015
    24  H    0.288320
 Sum of Mulliken charges =  -0.00000

 Dipole moment (field-independent basis, Debye):
    X=              0.9713    Y=              1.2826    Z=              0.0608  Tot=              1.6101
 Quadrupole moment (field-independent basis, Debye-Ang):
   XX=            -58.2684   YY=            -67.5193   ZZ=            -69.8976
   XY=             -2.6781   XZ=              5.9139   YZ=              1.4284

  Exact polarizability: 146.002  -1.950  96.270  -1.021   1.735  69.425
 Approx polarizability: 193.631  -4.502 131.342  -3.563   4.510 111.877

                      1                      2                      3
                      A                      A                      A
 Frequencies --     29.9594                37.4423                62.6536
 Red. masses --      6.0851                 5.0471                 3.7466
 Frc consts  --      0.0032                 0.0042                 0.0087
 IR Inten    --      0.1879                 2.1061                 1.5905

                      4                      5                      6
                      A                      A                      A
 Frequencies --     85.7785                91.9812               129.2202
 Red. masses --      3.0310                 6.8770                 3.2830
 Frc consts  --      0.0131                 0.0343                 0.0323
 IR Inten    --      2.6788                 3.2452                12.7542

                      7                      8                      9
                      A                      A                      A
 Frequencies --    155.8351               198.7166               202.2137
 Red. masses --      3.7501                 3.6597                 2.6884
 Frc consts  --      0.0537                 0.0851                 0.0648
 IR Inten    --      3.0328                 2.1192                 7.6632

                     10                     11                     12
                      A                      A                      A
 Frequencies --    221.0358               243.0429               258.8056
 Red. masses --      1.2124                 1.0672                 1.1650
 Frc consts  --      0.0349                 0.0371                 0.0460
 IR Inten    --     26.0191                 0.5139                71.1385

                     13                     14                     15
                      A                      A                      A
 Frequencies --    280.2506               309.3638               312.2167
 Red. masses --      3.2983                 3.3427                 5.6803
 Frc consts  --      0.1526                 0.1885                 0.3262
 IR Inten    --      7.9486                14.2933                26.0665

                     16                     17                     18
                      A                      A                      A
 Frequencies --    355.3964               411.1681               448.4932
 Red. masses --      1.2834                 4.7987                 5.4472
 Frc consts  --      0.0955                 0.4780                 0.6456
 IR Inten    --    141.2031                 6.5036                12.3713

                     19                     20                     21
                      A                      A                      A
 Frequencies --    475.5592               495.6847               546.3589
 Red. masses --      4.3092                 3.5810                 7.3211
 Frc consts  --      0.5742                 0.5184                 1.2876
 IR Inten    --     20.9017                 7.1166                 7.2190

                     22                     23                     24
                      A                      A                      A
 Frequencies --    597.5137               652.5577               690.5811
 Red. masses --      4.2745                 5.8634                 3.8493
 Frc consts  --      0.8992                 1.4711                 1.0816
 IR Inten    --     54.7869                48.1324                50.3685

                     25                     26                     27
                      A                      A                      A
 Frequencies --    858.5927               868.3649               894.7228
 Red. masses --      1.7888                 2.3144                 2.5495
 Frc consts  --      0.7769                 1.0282                 1.2025
 IR Inten    --     30.4885                30.0528                 6.4656

                     28                     29                     30
                      A                      A                      A
 Frequencies --    926.3114               964.9965               989.7532
 Red. masses --      2.0332                11.4792                 1.6045
 Frc consts  --      1.0279                 6.2981                 0.9261
 IR Inten    --     30.4709                 4.1398                24.4677

                     31                     32                     33
                      A                      A                      A
 Frequencies --   1028.1827              1092.6329              1121.3255
 Red. masses --      7.2167                 3.2325                 2.1425
 Frc consts  --      4.4950                 2.2737                 1.5872
 IR Inten    --      3.8265                36.6646                46.1180

                     34                     35                     36
                      A                      A                      A
 Frequencies --   1125.2670              1158.6864              1175.7620
 Red. masses --      4.6141                 5.6507                 1.2886
 Frc consts  --      3.4423                 4.4698                 1.0495
 IR Inten    --    159.5548                13.2154                 1.8115

                     37                     38                     39
                      A                      A                      A
 Frequencies --   1194.9023              1212.0157              1226.2003
 Red. masses --      2.8611                 1.1860                 1.4693
 Frc consts  --      2.4069                 1.0265                 1.3016
 IR Inten    --    131.6955                 3.6691                 5.7026

                     40                     41                     42
                      A                      A                      A
 Frequencies --   1243.8747              1345.0943              1355.8142
 Red. masses --      2.2889                 1.2980                 1.4017
 Frc consts  --      2.0866                 1.3837                 1.5181
 IR Inten    --     40.5047                83.2558                58.8774

                     43                     44                     45
                      A                      A                      A
 Frequencies --   1365.9629              1390.4761              1392.7549
 Red. masses --      1.1859                 1.2215                 1.3160
 Frc consts  --      1.3037                 1.3915                 1.5041
 IR Inten    --     33.9889                30.2294                48.9580

                     46                     47                     48
                      A                      A                      A
 Frequencies --   1396.0542              1418.6934              1486.1369
 Red. masses --      1.2519                 1.4044                 1.0553
 Frc consts  --      1.4376                 1.6654                 1.3732
 IR Inten    --     21.0462                26.4236                 1.8566

                     49                     50                     51
                      A                      A                      A
 Frequencies --   1486.8144              1487.1389              1487.5349
 Red. masses --      1.0976                 1.0618                 1.0466
 Frc consts  --      1.4296                 1.3835                 1.3644
 IR Inten    --      3.1581                 7.4094                 6.3051

                     52                     53                     54
                      A                      A                      A
 Frequencies --   1493.6767              1496.1051              1677.0201
 Red. masses --      1.1602                 1.1026                 6.6919
 Frc consts  --      1.5251                 1.4541                11.0885
 IR Inten    --      2.8933                17.9918               165.9763

                     55                     56                     57
                      A                      A                      A
 Frequencies --   2983.8962              3045.9497              3046.5539
 Red. masses --      1.0693                 1.0605                 1.0515
 Frc consts  --      5.6095                 5.7971                 5.7501
 IR Inten    --     56.0424                19.5509                38.9122

                     58                     59                     60
                      A                      A                      A
 Frequencies --   3052.2474              3059.6314              3128.5230
 Red. masses --      1.0335                 1.0911                 1.1057
 Frc consts  --      5.6728                 6.0182                 6.3765
 IR Inten    --     12.6335                15.4943                16.6020

                     61                     62                     63
                      A                      A                      A
 Frequencies --   3133.7383              3137.0882              3141.0580
 Red. masses --      1.1020                 1.1030                 1.1070
 Frc consts  --      6.3764                 6.3955                 6.4352
 IR Inten    --     14.1829                15.8440                21.5334

                     64                     65                     66
                      A                      A                      A
 Frequencies --   3194.3090              3762.7972              3808.3619
 Red. masses --      1.0881                 1.0686                 1.0659
 Frc consts  --      6.5412                 8.9147                 9.1088
 IR Inten    --      7.2855                40.2785                20.7404

 - Thermochemistry -
 -------------------
 Temperature   298.150 Kelvin.  Pressure   1.00000 Atm.
 Atom     1 has atomic number  6 and mass  12.00000

 Molecular mass:   180.06339 amu.
 Principal axes and moments of inertia in atomic units:
                           1         2         3
     Eigenvalues --  1311.222873878.745624915.80868
           X            0.99995   0.00816   0.00604
           Y           -0.00819   0.99996   0.00400
           Z           -0.00601  -0.00405   0.99997
 This molecule is an asymmetric top.
 Rotational symmetry number  1.
 Warning -- assumption of classical behavior for rotation
           may cause significant error
 Rotational temperatures (Kelvin)      0.06606     0.02233     0.01762
 Rotational constants (GHZ):           1.37638     0.46529     0.36713
 Zero-point vibrational energy     497328.6 (Joules/Mol)
                                  118.86439 (Kcal/Mol)
 Warning -- explicit consideration of  22 degrees of freedom as
           vibrations may cause significant error
 Vibrational temperatures:     43.10    53.87    90.14   123.42   132.34
          (Kelvin)            185.92   224.21   285.91   290.94   318.02
                              349.68   372.36   403.22   445.11   449.21
                              511.34   591.58   645.28   684.22   713.18
                              786.09   859.69   938.88   993.59  1235.32
                             1249.38  1287.31  1332.76  1388.41  1424.03
                             1479.33  1572.06  1613.34  1619.01  1667.09
                             1691.66  1719.20  1743.82  1764.23  1789.66
                             1935.29  1950.71  1965.32  2000.58  2003.86
                             2008.61  2041.18  2138.22  2139.19  2139.66
                             2140.23  2149.07  2152.56  2412.86  4293.16
                             4382.44  4383.31  4391.50  4402.13  4501.25
                             4508.75  4513.57  4519.28  4595.90  5413.83
                             5479.38

 Zero-point correction=                           0.189422 (Hartree/Particle)
 Thermal correction to Energy=                    0.204102
 Thermal correction to Enthalpy=                  0.205046
 Thermal correction to Gibbs Free Energy=         0.146623
 Sum of electronic and zero-point Energies=           -686.828722
 Sum of electronic and thermal Energies=              -686.814043
 Sum of electronic and thermal Enthalpies=            -686.813099
 Sum of electronic and thermal Free Energies=         -686.871522

                     E (Thermal)             CV                S
                      KCal/Mol        Cal/Mol-Kelvin    Cal/Mol-Kelvin
 Total                  128.076             51.116            122.962
 Electronic               0.000              0.000              0.000
 Translational            0.889              2.981             41.471
 Rotational               0.889              2.981             31.592
 Vibrational            126.298             45.155             49.899
 Vibration     1          0.594              1.984              5.832
 Vibration     2          0.594              1.982              5.390
 Vibration     3          0.597              1.972              4.372
 Vibration     4          0.601              1.959              3.754
 Vibration     5          0.602              1.955              3.617
 Vibration     6          0.612              1.924              2.958
 Vibration     7          0.620              1.896              2.600
 Vibration     8          0.637              1.842              2.145
 Vibration     9          0.639              1.837              2.113
 Vibration    10          0.648              1.809              1.951
 Vibration    11          0.659              1.774              1.780
 Vibration    12          0.668              1.748              1.670
 Vibration    13          0.680              1.710              1.532
 Vibration    14          0.699              1.656              1.366
 Vibration    15          0.701              1.650              1.351
 Vibration    16          0.731              1.564              1.142
 Vibration    17          0.775              1.446              0.922
 Vibration    18          0.808              1.364              0.800
 Vibration    19          0.832              1.304              0.722
 Vibration    20          0.851              1.260              0.669
 Vibration    21          0.902              1.148              0.552
 Vibration    22          0.955              1.037              0.454

                           ! Non-Optimized Parameters !
 Normal termination of Gaussian 16 at Tue May 23 03:54:30 2023.
