 Gaussian 16, Revision A.03,
 Gaussian 16:  ES64L-G16RevA.03 25-Dec-2016

 -----------------------------
 # opt freq b3lyp/6-31g(2df,p)
 -----------------------------

 -------------------
 Title Card Required
 -------------------
 Symbolic Z-matrix:
 Charge =  0 Multiplicity = 1

 SCF Done:  E(RB3LYP) =  -698.630633303     A.U. after   12 cycles
 SCF Done:  E(RB3LYP) =  -698.642371908     A.U. after   10 cycles
 SCF Done:  E(RB3LYP) =  -698.644917425     A.U. after   10 cycles
 SCF Done:  E(RB3LYP) =  -698.645949190     A.U. after   10 cycles
 SCF Done:  E(RB3LYP) =  -698.646328015     A.U. after   10 cycles
 SCF Done:  E(RB3LYP) =  -698.646413616     A.U. after   10 cycles
 SCF Done:  E(RB3LYP) =  -698.646518415     A.U. after    9 cycles
 SCF Done:  E(RB3LYP) =  -698.646554447     A.U. after    9 cycles
 SCF Done:  E(RB3LYP) =  -698.646563624     A.U. after    8 cycles
 SCF Done:  E(RB3LYP) =  -698.646565421     A.U. after    7 cycles
 SCF Done:  E(RB3LYP) =  -698.646565646     A.U. after    6 cycles
 SCF Done:  E(RB3LYP) =  -698.646565688     A.U. after    6 cycles
 Optimization completed.
    -- Stationary point found.
 Normal termination of Gaussian 16 at Tue May 23 12:37:23 2023.

 ----------------------------------------------------------------------
 #N Geom=AllCheck Guess=TCheck SCRF=Check GenChk RB3LYP/6-31G(2df,p) Fr
 eq
 ----------------------------------------------------------------------

 Structure from the checkpoint file:  "COCqCOrCCCCCqOrCCqCrC.chk"
 -------------------
 Title Card Required
 -------------------
 Charge =  0 Multiplicity = 1

                         Standard orientation:
 ---------------------------------------------------------------------
 Center     Atomic      Atomic             Coordinates (Angstroms)
 Number     Number       Type             X           Y           Z
 ---------------------------------------------------------------------
      1          6           0        5.934737   -1.165254    0.486637
      2          8           0        4.743767   -1.107940   -0.273068
      3          6           0        3.823292   -0.091381    0.090027
      4          6           0        4.240704    1.280621   -0.457040
      5          8           0        5.390542    1.836351    0.167553
      6          6           0        2.456234   -0.531482   -0.452173
      7          6           0        1.251623    0.194394    0.158667
      8          6           0       -0.086826   -0.333913   -0.369722
      9          6           0       -1.301212    0.378470    0.233552
     10          6           0       -2.645835   -0.190379   -0.245795
     11          8           0       -2.726576   -1.593200    0.020343
     12          6           0       -3.835496    0.594307    0.327224
     13          6           0       -5.218449    0.297718   -0.287992
     14          6           0       -5.776623   -1.077994    0.105907
     15          6           0       -6.213431    1.405389    0.088889
     16          1           0        6.462581   -2.070972    0.175306
     17          1           0        5.717135   -1.242109    1.564767
     18          1           0        6.576264   -0.293027    0.325009
     19          1           0        3.768007   -0.027169    1.194237
     20          1           0        3.391052    1.977843   -0.398951
     21          1           0        4.502782    1.160120   -1.513273
     22          1           0        5.170267    2.010891    1.088253
     23          1           0        2.371768   -1.606314   -0.259678
     24          1           0        2.450970   -0.415567   -1.544223
     25          1           0        1.313879    1.273090   -0.037204
     26          1           0        1.278004    0.084350    1.252220
     27          1           0       -0.169234   -1.407868   -0.169434
     28          1           0       -0.113260   -0.227300   -1.463087
     29          1           0       -1.262535    1.449146   -0.006603
     30          1           0       -1.262770    0.312059    1.332050
     31          1           0       -2.679558   -0.127662   -1.342118
     32          1           0       -2.765802   -1.703764    0.977275
     33          1           0       -3.618238    1.661823    0.190742
     34          1           0       -3.875071    0.435987    1.416973
     35          1           0       -5.099409    0.313838   -1.381385
     36          1           0       -5.922207   -1.137678    1.192491
     37          1           0       -5.101066   -1.882066   -0.188643
     38          1           0       -6.751817   -1.248263   -0.363007
     39          1           0       -6.352173    1.453364    1.176002
     40          1           0       -7.195411    1.222863   -0.360005
     41          1           0       -5.868336    2.389723   -0.245420
 ---------------------------------------------------------------------

 SCF Done:  E(RB3LYP) =  -698.646565688     A.U. after    1 cycles

 The electronic state is 1-A.
 Alpha  occ. eigenvalues --  -19.13812 -19.13529 -19.12992 -10.22914 -10.22809
 Alpha  occ. eigenvalues --  -10.22288 -10.21197 -10.18455 -10.18188 -10.17959
 Alpha  occ. eigenvalues --  -10.17831 -10.17695 -10.17614 -10.16957 -10.16205
 Alpha  occ. eigenvalues --   -1.02829  -1.01589  -1.01065  -0.81029  -0.80170
 Alpha  occ. eigenvalues --   -0.77263  -0.73369  -0.69240  -0.67517  -0.67184
 Alpha  occ. eigenvalues --   -0.64129  -0.60254  -0.58573  -0.57801  -0.55748
 Alpha  occ. eigenvalues --   -0.50948  -0.48951  -0.48414  -0.46989  -0.46220
 Alpha  occ. eigenvalues --   -0.45174  -0.44591  -0.43935  -0.43375  -0.42105
 Alpha  occ. eigenvalues --   -0.41435  -0.40757  -0.39574  -0.38932  -0.38477
 Alpha  occ. eigenvalues --   -0.37566  -0.36343  -0.35718  -0.34672  -0.34130
 Alpha  occ. eigenvalues --   -0.33572  -0.33134  -0.32454  -0.32307  -0.31892
 Alpha  occ. eigenvalues --   -0.31591  -0.30924  -0.30783  -0.28299  -0.25990
 Alpha  occ. eigenvalues --   -0.23434
 Alpha virt. eigenvalues --    0.06783   0.07237   0.09030   0.09518   0.10400
 Alpha virt. eigenvalues --    0.11241   0.11950   0.12297   0.13397   0.13842
 Alpha virt. eigenvalues --    0.14146   0.14808   0.15112   0.15492   0.16170

 Mulliken charges:
               1
     1  C   -0.239339
     2  O   -0.252592
     3  C    0.094141
     4  C   -0.063028
     5  O   -0.417387
     6  C   -0.206171
     7  C   -0.197230
     8  C   -0.176892
     9  C   -0.205173
    10  C    0.107590
    11  O   -0.420187
    12  C   -0.194732
    13  C    0.045286
    14  C   -0.390939
    15  C   -0.389414
    16  H    0.118653
    17  H    0.090597
    18  H    0.130073
    19  H    0.045180
    20  H    0.086495
    21  H    0.120429
    22  H    0.280128
    23  H    0.108493
    24  H    0.100482
    25  H    0.093966
    26  H    0.090287
    27  H    0.109817
    28  H    0.093103
    29  H    0.092968
    30  H    0.080876
    31  H    0.085177
    32  H    0.275056
    33  H    0.091211
    34  H    0.078312
    35  H    0.071261
    36  H    0.098165
    37  H    0.137320
    38  H    0.103294
    39  H    0.109332
    40  H    0.109302
    41  H    0.106090
 Sum of Mulliken charges =  -0.00000

 Dipole moment (field-independent basis, Debye):
    X=             -1.0885    Y=              1.3521    Z=              2.3034  Tot=              2.8842
 Quadrupole moment (field-independent basis, Debye-Ang):
   XX=           -107.1437   YY=            -99.7785   ZZ=            -91.2557
   XY=             -3.1739   XZ=              5.6711   YZ=             -1.7401

  Exact polarizability: 186.487  -4.006 132.570   2.414  -0.775 123.414
 Approx polarizability: 200.843  -1.251 194.158   1.562  -0.136 199.036

                      1                      2                      3
                      A                      A                      A
 Frequencies --     18.8651                25.6536                36.3059
 Red. masses --      3.2392                 3.8685                 3.8082
 Frc consts  --      0.0007                 0.0015                 0.0030
 IR Inten    --      0.0482                 0.2162                 0.1461

                      4                      5                      6
                      A                      A                      A
 Frequencies --     48.8836                66.4034                76.7495
 Red. masses --      3.2357                 2.7953                 2.3623
 Frc consts  --      0.0046                 0.0073                 0.0082
 IR Inten    --      0.5844                 1.1522                 2.1238

                      7                      8                      9
                      A                      A                      A
 Frequencies --     92.9148               108.8268               126.3791
 Red. masses --      2.3877                 2.1716                 2.5494
 Frc consts  --      0.0121                 0.0152                 0.0240
 IR Inten    --      0.9449                 0.6502                 0.9840

                     10                     11                     12
                      A                      A                      A
 Frequencies --    144.2917               163.2340               168.3731
 Red. masses --      2.6699                 2.0405                 2.8381
 Frc consts  --      0.0328                 0.0320                 0.0474
 IR Inten    --      0.9445                 0.3659                 0.1573

                     13                     14                     15
                      A                      A                      A
 Frequencies --    208.5224               219.4614               234.9921
 Red. masses --      1.9441                 1.6940                 1.2969
 Frc consts  --      0.0498                 0.0481                 0.0422
 IR Inten    --      4.5220                 1.5315                 5.3727

                     16                     17                     18
                      A                      A                      A
 Frequencies --    252.0991               261.2550               296.5524
 Red. masses --      2.9619                 1.2021                 1.3527
 Frc consts  --      0.1109                 0.0483                 0.0701
 IR Inten    --      1.4270                 6.8617                41.7234

                     19                     20                     21
                      A                      A                      A
 Frequencies --    303.1144               310.1335               328.4478
 Red. masses --      1.3401                 2.5035                 1.9689
 Frc consts  --      0.0725                 0.1419                 0.1251
 IR Inten    --     87.3396                17.4585                88.3790

                     22                     23                     24
                      A                      A                      A
 Frequencies --    349.9830               367.1662               412.7794
 Red. masses --      2.7314                 3.5818                 2.6057
 Frc consts  --      0.1971                 0.2845                 0.2616
 IR Inten    --      4.2595                 1.0913                 7.0111

                     25                     26                     27
                      A                      A                      A
 Frequencies --    420.9544               432.6183               476.5929
 Red. masses --      2.4231                 1.9207                 2.4471
 Frc consts  --      0.2530                 0.2118                 0.3275
 IR Inten    --      6.1786                 4.5437                19.0705

                     28                     29                     30
                      A                      A                      A
 Frequencies --    498.2909               579.2098               588.5453
 Red. masses --      2.3873                 2.8863                 2.9973
 Frc consts  --      0.3492                 0.5705                 0.6117
 IR Inten    --      4.4733                11.4041                 8.1964

                     31                     32                     33
                      A                      A                      A
 Frequencies --    734.1703               772.0117               821.6549
 Red. masses --      1.0954                 1.3070                 2.7928
 Frc consts  --      0.3479                 0.4590                 1.1109
 IR Inten    --      2.9113                 0.7673                 1.0986

                     34                     35                     36
                      A                      A                      A
 Frequencies --    841.2167               861.4019               874.9327
 Red. masses --      2.2311                 2.4364                 1.6109
 Frc consts  --      0.9302                 1.0651                 0.7266
 IR Inten    --      5.7216                11.6234                10.9579

                     37                     38                     39
                      A                      A                      A
 Frequencies --    924.9523               932.0464               953.8252
 Red. masses --      1.8285                 1.1864                 2.0950
 Frc consts  --      0.9217                 0.6072                 1.1230
 IR Inten    --      5.8364                 3.2701                10.4179

                     40                     41                     42
                      A                      A                      A
 Frequencies --    966.9782               983.9293              1004.2192
 Red. masses --      1.5341                 1.8969                 2.7832
 Frc consts  --      0.8451                 1.0820                 1.6537
 IR Inten    --      0.3086                17.5890                18.2931

                     43                     44                     45
                      A                      A                      A
 Frequencies --   1019.2604              1037.8241              1054.2622
 Red. masses --      3.3755                 1.9855                 2.2906
 Frc consts  --      2.0662                 1.2600                 1.5000
 IR Inten    --     13.7421                 1.0856                 4.7573

                     46                     47                     48
                      A                      A                      A
 Frequencies --   1065.3633              1072.3130              1088.7040
 Red. masses --      2.7050                 2.8583                 2.4274
 Frc consts  --      1.8089                 1.9365                 1.6951
 IR Inten    --     48.8303                18.2939                 2.0244

                     49                     50                     51
                      A                      A                      A
 Frequencies --   1105.3550              1115.4385              1121.2288
 Red. masses --      2.1886                 1.6591                 1.7096
 Frc consts  --      1.5755                 1.2162                 1.2663
 IR Inten    --     11.0966                59.3972                46.5801

                     52                     53                     54
                      A                      A                      A
 Frequencies --   1135.9553              1160.4632              1162.1692
 Red. masses --      1.8708                 2.5840                 2.8628
 Frc consts  --      1.4224                 2.0502                 2.2781
 IR Inten    --     17.6337                16.8514               135.6017

                     55                     56                     57
                      A                      A                      A
 Frequencies --   1185.8834              1195.3312              1211.8848
 Red. masses --      1.2718                 1.7365                 1.3876
 Frc consts  --      1.0538                 1.4619                 1.2007
 IR Inten    --      3.2829                 6.2746                26.1525

                     58                     59                     60
                      A                      A                      A
 Frequencies --   1231.8126              1239.5944              1246.2673
 Red. masses --      1.4996                 1.5033                 1.3513
 Frc consts  --      1.3407                 1.3610                 1.2366
 IR Inten    --      1.5404                10.6963                 4.1299

                     61                     62                     63
                      A                      A                      A
 Frequencies --   1271.3612              1291.5627              1309.3028
 Red. masses --      1.4018                 1.1933                 1.2454
 Frc consts  --      1.3350                 1.1728                 1.2579
 IR Inten    --      6.6846                 1.1061                 1.0314

                     64                     65                     66
                      A                      A                      A
 Frequencies --   1316.4972              1327.7484              1343.0786
 Red. masses --      1.2413                 1.1069                 1.2383
 Frc consts  --      1.2676                 1.1497                 1.3161
 IR Inten    --      1.1620                 1.0609                 4.4077

                     67                     68                     69
                      A                      A                      A
 Frequencies --   1351.6843              1357.5217              1374.0797
 Red. masses --      1.3544                 1.3128                 1.3115
 Frc consts  --      1.4580                 1.4254                 1.4590
 IR Inten    --      3.1293                 1.5778                 9.9164

                     70                     71                     72
                      A                      A                      A
 Frequencies --   1380.8027              1388.0759              1394.9349
 Red. masses --      1.3263                 1.5188                 1.3935
 Frc consts  --      1.4899                 1.7241                 1.5976
 IR Inten    --      6.4598                 6.4586                12.3301

                     73                     74                     75
                      A                      A                      A
 Frequencies --   1397.7955              1399.8967              1405.9480
 Red. masses --      1.4944                 1.2925                 1.4231
 Frc consts  --      1.7203                 1.4923                 1.6574
 IR Inten    --      4.6158                11.2911                17.3413

                     76                     77                     78
                      A                      A                      A
 Frequencies --   1416.6134              1418.0569              1423.4312
 Red. masses --      1.3031                 1.2043                 1.2355
 Frc consts  --      1.5407                 1.4269                 1.4749
 IR Inten    --     28.3370                28.5814                 7.8067

                     79                     80                     81
                      A                      A                      A
 Frequencies --   1467.6085              1477.3378              1480.3769
 Red. masses --      1.0883                 1.1068                 1.0841
 Frc consts  --      1.3811                 1.4232                 1.3998
 IR Inten    --      1.0429                 3.1734                 3.3646

                     82                     83                     84
                      A                      A                      A
 Frequencies --   1482.7143              1486.0134              1489.7008
 Red. masses --      1.0771                 1.0877                 1.0886
 Frc consts  --      1.3952                 1.4152                 1.4233
 IR Inten    --      0.7833                 1.0072                 2.7340

                     85                     86                     87
                      A                      A                      A
 Frequencies --   1491.0184              1494.0514              1495.6333
 Red. masses --      1.0448                 1.0726                 1.0805
 Frc consts  --      1.3685                 1.4106                 1.4240
 IR Inten    --      1.2272                 3.5254                 0.4094

                     88                     89                     90
                      A                      A                      A
 Frequencies --   1504.0993              1512.2501              1518.0260
 Red. masses --      1.0500                 1.0987                 1.0526
 Frc consts  --      1.3996                 1.4804                 1.4292
 IR Inten    --      4.7711                 2.9378                 7.1131

                     91                     92                     93
                      A                      A                      A
 Frequencies --   1521.0858              2912.9917              2971.6506
 Red. masses --      1.0571                 1.0807                 1.0504
 Frc consts  --      1.4410                 5.4030                 5.4653
 IR Inten    --      8.5746                38.2308                75.8780

                     94                     95                     96
                      A                      A                      A
 Frequencies --   2981.4756              2987.9003              2989.7978
 Red. masses --      1.0669                 1.0672                 1.0665
 Frc consts  --      5.5876                 5.6133                 5.6169
 IR Inten    --      3.8670                52.7488                13.9620

                     97                     98                     99
                      A                      A                      A
 Frequencies --   2995.6160              3002.8187              3015.2268
 Red. masses --      1.0796                 1.0617                 1.0689
 Frc consts  --      5.7079                 5.6403                 5.7256
 IR Inten    --     18.4435                11.4617                 6.9016

                    100                    101                    102
                      A                      A                      A
 Frequencies --   3019.0958              3021.5041              3024.6174
 Red. masses --      1.0386                 1.0727                 1.0461
 Frc consts  --      5.5777                 5.7698                 5.6383
 IR Inten    --     20.4448                19.9510                35.8680

                    103                    104                    105
                      A                      A                      A
 Frequencies --   3025.5024              3034.0402              3036.0844
 Red. masses --      1.0683                 1.0948                 1.0883
 Frc consts  --      5.7614                 5.9381                 5.9106
 IR Inten    --     76.5958                 3.5351                28.3768

                    106                    107                    108
                      A                      A                      A
 Frequencies --   3048.4437              3067.7468              3072.7501
 Red. masses --      1.0948                 1.0802                 1.0985
 Frc consts  --      5.9942                 5.9898                 6.1111
 IR Inten    --     44.6954                46.9458                 1.9473

                    109                    110                    111
                      A                      A                      A
 Frequencies --   3080.2695              3083.0676              3083.4020
 Red. masses --      1.0982                 1.0957                 1.0990
 Frc consts  --      6.1393                 6.1365                 6.1564
 IR Inten    --     15.8245                24.7154                74.4672

                    112                    113                    114
                      A                      A                      A
 Frequencies --   3087.9768              3096.5460              3111.9832
 Red. masses --      1.0998                 1.1013                 1.1046
 Frc consts  --      6.1788                 6.2217                 6.3025
 IR Inten    --     68.1863                44.8880                25.2726

                    115                    116                    117
                      A                      A                      A
 Frequencies --   3141.1914              3792.8998              3813.4339
 Red. masses --      1.0972                 1.0658                 1.0661
 Frc consts  --      6.3785                 9.0334                 9.1345
 IR Inten    --      9.0199                11.2540                15.6537

 - Thermochemistry -
 -------------------
 Temperature   298.150 Kelvin.  Pressure   1.00000 Atm.
 Atom     1 has atomic number  6 and mass  12.00000

 Molecular mass:   218.18819 amu.
 Principal axes and moments of inertia in atomic units:
                           1         2         3
     Eigenvalues --  1026.03829********************
           X            0.99999  -0.00465   0.00117
           Y            0.00466   0.99996  -0.00746
           Z           -0.00113   0.00746   0.99997
 This molecule is an asymmetric top.
 Rotational symmetry number  1.
 Warning -- assumption of classical behavior for rotation
           may cause significant error
 Rotational temperatures (Kelvin)      0.08442     0.00626     0.00594
 Rotational constants (GHZ):           1.75894     0.13042     0.12386
 Zero-point vibrational energy     976298.6 (Joules/Mol)
                                  233.34098 (Kcal/Mol)
 Warning -- explicit consideration of  30 degrees of freedom as
           vibrations may cause significant error
 Vibrational temperatures:     27.14    36.91    52.24    70.33    95.54
          (Kelvin)            110.43   133.68   156.58   181.83   207.60
                              234.86   242.25   300.02   315.76   338.10
                              362.71   375.89   426.67   436.11   446.21
                              472.56   503.55   528.27   593.90   605.66
                              622.44   685.71   716.93   833.35   846.79
                             1056.31  1110.75  1182.18  1210.32  1239.37
                             1258.83  1330.80  1341.01  1372.34  1391.27
                             1415.65  1444.85  1466.49  1493.20  1516.85
                             1532.82  1542.82  1566.40  1590.36  1604.87
                             1613.20  1634.39  1669.65  1672.10  1706.22
                             1719.81  1743.63  1772.30  1783.50  1793.10
                             1829.21  1858.27  1883.79  1894.15  1910.33
                             1932.39  1944.77  1953.17  1976.99  1986.67
                             1997.13  2007.00  2011.12  2014.14  2022.85
                             2038.19  2040.27  2048.00  2111.56  2125.56
                             2129.93  2133.30  2138.04  2143.35  2145.24
                             2149.61  2151.88  2164.06  2175.79  2184.10
                             2188.50  4191.15  4275.54  4289.68  4298.92
                             4301.65  4310.02  4320.39  4338.24  4343.81
                             4347.27  4351.75  4353.02  4365.31  4368.25
                             4386.03  4413.80  4421.00  4431.82  4435.85
                             4436.33  4442.91  4455.24  4477.45  4519.47
                             5457.14  5486.68

 Zero-point correction=                           0.371853 (Hartree/Particle)
 Thermal correction to Energy=                    0.391676
 Thermal correction to Enthalpy=                  0.392620
 Thermal correction to Gibbs Free Energy=         0.321301
 Sum of electronic and zero-point Energies=           -698.274713
 Sum of electronic and thermal Energies=              -698.254889
 Sum of electronic and thermal Enthalpies=            -698.253945
 Sum of electronic and thermal Free Energies=         -698.325265

                     E (Thermal)             CV                S
                      KCal/Mol        Cal/Mol-Kelvin    Cal/Mol-Kelvin
 Total                  245.781             71.010            150.105
 Electronic               0.000              0.000              0.000
 Translational            0.889              2.981             42.044
 Rotational               0.889              2.981             33.692
 Vibrational            244.003             65.048             74.369
 Vibration     1          0.593              1.986              6.750
 Vibration     2          0.593              1.985              6.140
 Vibration     3          0.594              1.982              5.451
 Vibration     4          0.595              1.978              4.862
 Vibration     5          0.598              1.970              4.257
 Vibration     6          0.599              1.965              3.972
 Vibration     7          0.602              1.954              3.598
 Vibration     8          0.606              1.942              3.290
 Vibration     9          0.611              1.927              3.000
 Vibration    10          0.616              1.909              2.746
 Vibration    11          0.623              1.888              2.512
 Vibration    12          0.625              1.881              2.454
 Vibration    13          0.642              1.828              2.057
 Vibration    14          0.647              1.811              1.964
 Vibration    15          0.655              1.787              1.840
 Vibration    16          0.664              1.759              1.716
 Vibration    17          0.669              1.744              1.653
 Vibration    18          0.690              1.680              1.436
 Vibration    19          0.695              1.668              1.400
 Vibration    20          0.699              1.654              1.362
 Vibration    21          0.712              1.619              1.268
 Vibration    22          0.727              1.575              1.166
 Vibration    23          0.740              1.540              1.092
 Vibration    24          0.777              1.442              0.917
 Vibration    25          0.783              1.425              0.889
 Vibration    26          0.794              1.399              0.850
 Vibration    27          0.833              1.302              0.719
 Vibration    28          0.854              1.254              0.662
 Vibration    29          0.936              1.076              0.487
 Vibration    30          0.946              1.056              0.470

                           ! Non-Optimized Parameters !
 Normal termination of Gaussian 16 at Tue May 23 15:22:32 2023.
