 Gaussian 16, Revision A.03,
 Gaussian 16:  ES64L-G16RevA.03 25-Dec-2016

 -----------------------------
 # opt freq b3lyp/6-31g(2df,p)
 -----------------------------

 -------------------
 Title Card Required
 -------------------
 Symbolic Z-matrix:
 Charge =  0 Multiplicity = 1

 SCF Done:  E(RB3LYP) =  -1334.26634865     A.U. after   13 cycles
 SCF Done:  E(RB3LYP) =  -1334.28208740     A.U. after   12 cycles
 SCF Done:  E(RB3LYP) =  -1334.29725468     A.U. after   11 cycles
 SCF Done:  E(RB3LYP) =  -1334.30503573     A.U. after   11 cycles
 SCF Done:  E(RB3LYP) =  -1334.31163799     A.U. after   12 cycles
 SCF Done:  E(RB3LYP) =  -1334.31525933     A.U. after   12 cycles
 SCF Done:  E(RB3LYP) =  -1334.31999732     A.U. after   12 cycles
 SCF Done:  E(RB3LYP) =  -1334.32338250     A.U. after   13 cycles
 SCF Done:  E(RB3LYP) =  -1334.32590411     A.U. after   11 cycles
 SCF Done:  E(RB3LYP) =  -1334.32788461     A.U. after   12 cycles
 SCF Done:  E(RB3LYP) =  -1334.32978815     A.U. after    8 cycles
 SCF Done:  E(RB3LYP) =  -1334.32979064     A.U. after    9 cycles
 SCF Done:  E(RB3LYP) =  -1334.32979476     A.U. after    9 cycles
 SCF Done:  E(RB3LYP) =  -1334.32979932     A.U. after    9 cycles
 SCF Done:  E(RB3LYP) =  -1334.32980064     A.U. after    9 cycles
 SCF Done:  E(RB3LYP) =  -1334.32980108     A.U. after    8 cycles
 SCF Done:  E(RB3LYP) =  -1334.32980118     A.U. after    7 cycles
 SCF Done:  E(RB3LYP) =  -1334.32980119     A.U. after    6 cycles
 SCF Done:  E(RB3LYP) =  -1334.32980118     A.U. after    6 cycles
 Optimization completed.
    -- Stationary point found.
 Normal termination of Gaussian 16 at Wed May 24 20:00:20 2023.

 ----------------------------------------------------------------------
 #N Geom=AllCheck Guess=TCheck SCRF=Check GenChk RB3LYP/6-31G(2df,p) Fr
 eq
 ----------------------------------------------------------------------

 Structure from the checkpoint file:  "COCqCCqCOrSOrOCS.chk"
 -------------------
 Title Card Required
 -------------------
 Charge =  0 Multiplicity = 1

                         Standard orientation:
 ---------------------------------------------------------------------
 Center     Atomic      Atomic             Coordinates (Angstroms)
 Number     Number       Type             X           Y           Z
 ---------------------------------------------------------------------
      1          6           0        1.409050    2.606235   -0.534931
      2          8           0        0.584847    1.514961   -0.919730
      3          6           0        0.740272    0.384559   -0.136697
      4          6           0       -0.416884   -0.567680   -0.461098
      5          6           0       -1.745838   -0.249367    0.251345
      6          6           0       -2.185885    1.221760    0.226014
      7          8           0       -1.454090    2.019758    1.150858
      8         16           0       -2.987886   -1.334225   -0.548169
      9          8           0       -4.293276   -1.172151    0.497074
     10          8           0        1.996312   -0.208226   -0.474107
     11          6           0        2.590306   -0.983405    0.531305
     12         16           0        4.401131   -1.054208    0.327460
     13          1           0        1.228506    3.405413   -1.256362
     14          1           0        2.468232    2.328073   -0.559018
     15          1           0        1.135477    2.958450    0.467992
     16          1           0        0.754930    0.645063    0.935913
     17          1           0       -0.116946   -1.587139   -0.201359
     18          1           0       -0.545438   -0.534153   -1.549715
     19          1           0       -1.686279   -0.571845    1.298642
     20          1           0       -3.261466    1.278736    0.441198
     21          1           0       -2.006189    1.651797   -0.761000
     22          1           0       -1.749117    1.787087    2.037110
     23          1           0       -4.877777   -0.507367    0.113468
     24          1           0        2.197155   -2.007118    0.544605
     25          1           0        2.436914   -0.544287    1.527651
     26          1           0        4.393609   -1.795133   -0.796170
 ---------------------------------------------------------------------

 SCF Done:  E(RB3LYP) =  -1334.32980118     A.U. after    1 cycles

 The electronic state is 1-A.
 Alpha  occ. eigenvalues --  -88.91312 -88.87362 -19.17747 -19.15220 -19.14909
 Alpha  occ. eigenvalues --  -19.14865 -10.28525 -10.26893 -10.23539 -10.22307
 Alpha  occ. eigenvalues --  -10.21944 -10.19724  -7.97008  -7.94009  -5.93751
 Alpha  occ. eigenvalues --   -5.93129  -5.92395  -5.90450  -5.90116  -5.89525
 Alpha  occ. eigenvalues --   -1.07605  -1.03835  -1.02747  -1.01690  -0.82119
 Alpha  occ. eigenvalues --   -0.77928  -0.73628  -0.68681  -0.68086  -0.64558
 Alpha  occ. eigenvalues --   -0.61074  -0.58988  -0.52965  -0.51395  -0.51082
 Alpha  occ. eigenvalues --   -0.50279  -0.48469  -0.46883  -0.45605  -0.43542
 Alpha  occ. eigenvalues --   -0.42683  -0.42125  -0.40574  -0.40022  -0.38208
 Alpha  occ. eigenvalues --   -0.37389  -0.36139  -0.35520  -0.33974  -0.33240
 Alpha  occ. eigenvalues --   -0.32381  -0.30048  -0.28053  -0.27521  -0.26545
 Alpha  occ. eigenvalues --   -0.24746  -0.22999
 Alpha virt. eigenvalues --   -0.01158   0.02210   0.04612   0.06750   0.07195
 Alpha virt. eigenvalues --    0.08729   0.09044   0.10708   0.11799   0.13271
 Alpha virt. eigenvalues --    0.13719   0.14135   0.14582   0.16035   0.16746

 Mulliken charges:
               1
     1  C   -0.248997
     2  O   -0.221061
     3  C    0.196559
     4  C   -0.255254
     5  C   -0.021803
     6  C   -0.073120
     7  O   -0.414195
     8  S   -0.001162
     9  O   -0.414309
    10  O   -0.236876
    11  C   -0.087454
    12  S   -0.248653
    13  H    0.127485
    14  H    0.132629
    15  H    0.120507
    16  H    0.059014
    17  H    0.119712
    18  H    0.136098
    19  H    0.098499
    20  H    0.080203
    21  H    0.136843
    22  H    0.284598
    23  H    0.314037
    24  H    0.128683
    25  H    0.122237
    26  H    0.165781
 Sum of Mulliken charges =  -0.00000

 Dipole moment (field-independent basis, Debye):
    X=             -1.6945    Y=              0.8139    Z=              1.4580  Tot=              2.3790
 Quadrupole moment (field-independent basis, Debye-Ang):
   XX=            -88.9008   YY=            -88.9027   ZZ=            -84.3175
   XY=             -6.4596   XZ=             -2.0656   YZ=              2.9213

  Exact polarizability: 152.327   1.270 113.765  -0.264   2.649  95.930
 Approx polarizability: 192.662   2.810 162.236  -2.819   5.258 161.581

                      1                      2                      3
                      A                      A                      A
 Frequencies --     14.8175                39.1741                50.3893
 Red. masses --      4.8497                 4.3363                 5.1823
 Frc consts  --      0.0006                 0.0039                 0.0078
 IR Inten    --      0.7913                 1.0652                 0.4291

                      4                      5                      6
                      A                      A                      A
 Frequencies --     71.1645                91.0409                97.5225
 Red. masses --      3.7559                 3.9770                 3.7063
 Frc consts  --      0.0112                 0.0194                 0.0208
 IR Inten    --      2.5689                 0.2699                 3.7850

                      7                      8                      9
                      A                      A                      A
 Frequencies --    137.0933               151.7508               171.4463
 Red. masses --      3.7151                 1.9212                 1.7889
 Frc consts  --      0.0411                 0.0261                 0.0310
 IR Inten    --      5.8785                 0.3398                 1.4588

                     10                     11                     12
                      A                      A                      A
 Frequencies --    195.8789               214.9075               227.6472
 Red. masses --      3.9439                 1.7520                 4.2026
 Frc consts  --      0.0892                 0.0477                 0.1283
 IR Inten    --      1.6559                 5.6703                 6.7437

                     13                     14                     15
                      A                      A                      A
 Frequencies --    257.2643               265.1336               293.2570
 Red. masses --      3.1618                 2.7301                 2.8249
 Frc consts  --      0.1233                 0.1131                 0.1431
 IR Inten    --      1.8187                 4.2818                 6.0585

                     16                     17                     18
                      A                      A                      A
 Frequencies --    309.8968               333.0224               387.0583
 Red. masses --      1.3370                 2.1625                 3.8240
 Frc consts  --      0.0757                 0.1413                 0.3375
 IR Inten    --     78.3543                58.5193                 6.0248

                     19                     20                     21
                      A                      A                      A
 Frequencies --    410.7190               434.1009               471.0172
 Red. masses --      2.1781                 1.7516                 2.7603
 Frc consts  --      0.2165                 0.1945                 0.3608
 IR Inten    --     25.7953                70.8090                 5.8628

                     22                     23                     24
                      A                      A                      A
 Frequencies --    543.8873               577.4034               732.4379
 Red. masses --      3.1691                 5.4384                 2.5812
 Frc consts  --      0.5523                 1.0683                 0.8159
 IR Inten    --      3.2051                 2.6136                26.6655

                     25                     26                     27
                      A                      A                      A
 Frequencies --    759.0057               797.2046               809.3469
 Red. masses --     16.0238                 3.3519                 1.4990
 Frc consts  --      5.4388                 1.2551                 0.5785
 IR Inten    --     90.7873                 2.6309                 7.8942

                     28                     29                     30
                      A                      A                      A
 Frequencies --    841.6517               882.6640               968.1530
 Red. masses --      1.8135                 2.8973                 2.5704
 Frc consts  --      0.7569                 1.3299                 1.4195
 IR Inten    --      3.8635                 8.4915               120.9454

                     31                     32                     33
                      A                      A                      A
 Frequencies --    993.2904              1042.7609              1059.6443
 Red. masses --      2.9413                 3.5402                 3.2595
 Frc consts  --      1.7098                 2.2680                 2.1563
 IR Inten    --     63.9761                56.3513                13.2932

                     34                     35                     36
                      A                      A                      A
 Frequencies --   1066.8900              1081.4388              1090.4649
 Red. masses --      2.4548                 2.5898                 2.5905
 Frc consts  --      1.6463                 1.7845                 1.8149
 IR Inten    --    273.8775                31.3809               106.2497

                     37                     38                     39
                      A                      A                      A
 Frequencies --   1112.5058              1164.0761              1173.1534
 Red. masses --      3.1881                 2.8487                 1.1960
 Frc consts  --      2.3248                 2.2744                 0.9698
 IR Inten    --     12.4018               136.5181                 6.5428

                     40                     41                     42
                      A                      A                      A
 Frequencies --   1180.6963              1183.4837              1201.4217
 Red. masses --      1.2219                 1.5137                 1.0953
 Frc consts  --      1.0036                 1.2492                 0.9315
 IR Inten    --      2.4273                61.9117                42.1849

                     43                     44                     45
                      A                      A                      A
 Frequencies --   1242.9561              1263.5622              1297.4938
 Red. masses --      1.6819                 1.0839                 1.3123
 Frc consts  --      1.5309                 1.0196                 1.3017
 IR Inten    --     26.0889                 6.6740                14.3960

                     46                     47                     48
                      A                      A                      A
 Frequencies --   1322.2157              1342.5564              1369.9273
 Red. masses --      1.2469                 1.1876                 1.2853
 Frc consts  --      1.2844                 1.2612                 1.4212
 IR Inten    --      0.9699                51.5756                 4.6080

                     49                     50                     51
                      A                      A                      A
 Frequencies --   1390.7224              1399.0341              1405.9974
 Red. masses --      1.2002                 1.2099                 1.3264
 Frc consts  --      1.3677                 1.3953                 1.5449
 IR Inten    --     27.9622                16.7923                48.0316

                     52                     53                     54
                      A                      A                      A
 Frequencies --   1411.4693              1470.3195              1475.3370
 Red. masses --      1.2823                 1.0942                 1.1674
 Frc consts  --      1.5052                 1.3937                 1.4971
 IR Inten    --      6.2385                10.8170                 3.2018

                     55                     56                     57
                      A                      A                      A
 Frequencies --   1487.4036              1490.7736              1498.9443
 Red. masses --      1.0914                 1.0586                 1.0874
 Frc consts  --      1.4226                 1.3861                 1.4395
 IR Inten    --      5.7884                 2.5963                 4.0095

                     58                     59                     60
                      A                      A                      A
 Frequencies --   1506.7085              2679.9104              2953.0678
 Red. masses --      1.0489                 1.0385                 1.0814
 Frc consts  --      1.4030                 4.3944                 5.5564
 IR Inten    --      5.0931                 1.7147                28.2564

                     61                     62                     63
                      A                      A                      A
 Frequencies --   2998.0245              3008.9765              3015.0095
 Red. masses --      1.0547                 1.0693                 1.0345
 Frc consts  --      5.5854                 5.7041                 5.5408
 IR Inten    --     27.2892                57.2545                40.1498

                     64                     65                     66
                      A                      A                      A
 Frequencies --   3022.9486              3041.7597              3045.9293
 Red. masses --      1.0831                 1.0622                 1.1056
 Frc consts  --      5.8313                 5.7903                 6.0437
 IR Inten    --     12.6026                 7.5802                26.4904

                     67                     68                     69
                      A                      A                      A
 Frequencies --   3086.1969              3094.3126              3122.6042
 Red. masses --      1.1025                 1.1015                 1.0948
 Frc consts  --      6.1870                 6.2136                 6.2894
 IR Inten    --     28.9779                15.7581                11.3221

                     70                     71                     72
                      A                      A                      A
 Frequencies --   3131.3100              3788.2174              3814.7414
 Red. masses --      1.1015                 1.0678                 1.0663
 Frc consts  --      6.3633                 9.0284                 9.1426
 IR Inten    --     22.2465                62.8997                22.4366

 - Thermochemistry -
 -------------------
 Temperature   298.150 Kelvin.  Pressure   1.00000 Atm.
 Atom     1 has atomic number  6 and mass  12.00000

 Molecular mass:   214.03335 amu.
 Principal axes and moments of inertia in atomic units:
                           1         2         3
     Eigenvalues --  1646.089655985.343637048.23379
           X            0.99998  -0.00535  -0.00363
           Y            0.00534   0.99998  -0.00229
           Z            0.00364   0.00227   0.99999
 This molecule is an asymmetric top.
 Rotational symmetry number  1.
 Warning -- assumption of classical behavior for rotation
           may cause significant error
 Rotational temperatures (Kelvin)      0.05262     0.01447     0.01229
 Rotational constants (GHZ):           1.09638     0.30153     0.25606
 Zero-point vibrational energy     544685.6 (Joules/Mol)
                                  130.18297 (Kcal/Mol)
 Warning -- explicit consideration of  23 degrees of freedom as
           vibrations may cause significant error
 Vibrational temperatures:     21.32    56.36    72.50   102.39   130.99
          (Kelvin)            140.31   197.25   218.34   246.67   281.83
                              309.20   327.53   370.15   381.47   421.93
                              445.87   479.14   556.89   590.93   624.57
                              677.69   782.53   830.75  1053.81  1092.04
                             1147.00  1164.47  1210.95  1269.96  1392.96
                             1429.12  1500.30  1524.59  1535.02  1555.95
                             1568.94  1600.65  1674.85  1687.91  1698.76
                             1702.77  1728.58  1788.34  1817.98  1866.80
                             1902.37  1931.64  1971.02  2000.94  2012.90
                             2022.92  2030.79  2115.46  2122.68  2140.04
                             2144.89  2156.65  2167.82  3855.79  4248.81
                             4313.49  4329.25  4337.93  4349.35  4376.41
                             4382.41  4440.35  4452.03  4492.73  4505.26
                             5450.40  5488.56

 Zero-point correction=                           0.207460 (Hartree/Particle)
 Thermal correction to Energy=                    0.223319
 Thermal correction to Enthalpy=                  0.224263
 Thermal correction to Gibbs Free Energy=         0.161781
 Sum of electronic and zero-point Energies=          -1334.122341
 Sum of electronic and thermal Energies=             -1334.106482
 Sum of electronic and thermal Enthalpies=           -1334.105538
 Sum of electronic and thermal Free Energies=        -1334.168020

                     E (Thermal)             CV                S
                      KCal/Mol        Cal/Mol-Kelvin    Cal/Mol-Kelvin
 Total                  140.135             54.624            131.503
 Electronic               0.000              0.000              0.000
 Translational            0.889              2.981             41.986
 Rotational               0.889              2.981             32.607
 Vibrational            138.357             48.663             56.910
 Vibration     1          0.593              1.986              7.230
 Vibration     2          0.594              1.981              5.300
 Vibration     3          0.595              1.977              4.802
 Vibration     4          0.598              1.968              4.121
 Vibration     5          0.602              1.956              3.638
 Vibration     6          0.603              1.951              3.503
 Vibration     7          0.614              1.916              2.844
 Vibration     8          0.619              1.901              2.650
 Vibration     9          0.626              1.878              2.420
 Vibration    10          0.636              1.846              2.171
 Vibration    11          0.645              1.818              2.002
 Vibration    12          0.651              1.799              1.897
 Vibration    13          0.667              1.750              1.680
 Vibration    14          0.671              1.737              1.628
 Vibration    15          0.688              1.686              1.455
 Vibration    16          0.699              1.655              1.363
 Vibration    17          0.715              1.610              1.245
 Vibration    18          0.755              1.498              1.011
 Vibration    19          0.775              1.447              0.924
 Vibration    20          0.795              1.396              0.845
 Vibration    21          0.828              1.314              0.735
 Vibration    22          0.899              1.153              0.557
 Vibration    23          0.934              1.080              0.490

 Optimization completed.
    -- Stationary point found.
 Normal termination of Gaussian 16 at Wed May 24 21:12:30 2023.
