 Gaussian 16, Revision A.03,
 Gaussian 16:  ES64L-G16RevA.03 25-Dec-2016

 -----------------------------
 # opt freq b3lyp/6-31g(2df,p)
 -----------------------------

 -------------------
 Title Card Required
 -------------------
 Symbolic Z-matrix:
 Charge =  0 Multiplicity = 1

 SCF Done:  E(RB3LYP) =  -466.133342574     A.U. after   12 cycles
 SCF Done:  E(RB3LYP) =  -466.137959558     A.U. after   11 cycles
 SCF Done:  E(RB3LYP) =  -466.143135495     A.U. after   11 cycles
 SCF Done:  E(RB3LYP) =  -466.143123159     A.U. after   11 cycles
 SCF Done:  E(RB3LYP) =  -466.145683306     A.U. after   11 cycles
 SCF Done:  E(RB3LYP) =  -466.147271267     A.U. after   10 cycles
 SCF Done:  E(RB3LYP) =  -466.148673069     A.U. after   11 cycles
 SCF Done:  E(RB3LYP) =  -466.145454363     A.U. after   13 cycles
 SCF Done:  E(RB3LYP) =  -466.150679543     A.U. after   10 cycles
 SCF Done:  E(RB3LYP) =  -466.151346510     A.U. after   11 cycles
 SCF Done:  E(RB3LYP) =  -466.152738141     A.U. after    9 cycles
 SCF Done:  E(RB3LYP) =  -466.152775972     A.U. after    9 cycles
 SCF Done:  E(RB3LYP) =  -466.152797521     A.U. after    9 cycles
 SCF Done:  E(RB3LYP) =  -466.152803825     A.U. after    8 cycles
 SCF Done:  E(RB3LYP) =  -466.152804863     A.U. after    7 cycles
 SCF Done:  E(RB3LYP) =  -466.152805984     A.U. after    7 cycles
 SCF Done:  E(RB3LYP) =  -466.152806889     A.U. after    8 cycles
 SCF Done:  E(RB3LYP) =  -466.152807522     A.U. after    7 cycles
 SCF Done:  E(RB3LYP) =  -466.152807607     A.U. after    6 cycles
 Optimization completed.
    -- Stationary point found.
 Normal termination of Gaussian 16 at Mon May 22 08:35:45 2023.

 ----------------------------------------------------------------------
 #N Geom=AllCheck Guess=TCheck SCRF=Check GenChk RB3LYP/6-31G(2df,p) Fr
 eq
 ----------------------------------------------------------------------

 Structure from the checkpoint file:  "COCqCOrCqCrCqCrC.chk"
 -------------------
 Title Card Required
 -------------------
 Charge =  0 Multiplicity = 1

                         Standard orientation:
 ---------------------------------------------------------------------
 Center     Atomic      Atomic             Coordinates (Angstroms)
 Number     Number       Type             X           Y           Z
 ---------------------------------------------------------------------
      1          6           0        2.588525   -1.140776    0.949719
      2          8           0        1.507126   -1.163591    0.040770
      3          6           0        0.679439   -0.011114    0.033273
      4          6           0        1.281970    1.086110   -0.857718
      5          8           0        2.503121    1.628604   -0.374723
      6          6           0       -0.756235   -0.390341   -0.460121
      7          6           0       -0.915297   -1.906844   -0.651829
      8          6           0       -1.846989    0.199461    0.477840
      9          6           0       -1.769744    1.730744    0.595611
     10          6           0       -3.269752   -0.193992    0.049255
     11          1           0        3.027744   -2.142389    0.941505
     12          1           0        2.245178   -0.919492    1.973662
     13          1           0        3.349870   -0.405401    0.670191
     14          1           0        0.614988    0.370565    1.067633
     15          1           0        0.538334    1.878470   -1.026443
     16          1           0        1.516767    0.638632   -1.829412
     17          1           0        2.310675    2.114536    0.433737
     18          1           0       -0.900248    0.074725   -1.447677
     19          1           0       -0.895995   -2.435555    0.306757
     20          1           0       -0.103921   -2.308892   -1.258962
     21          1           0       -1.860169   -2.134595   -1.150649
     22          1           0       -1.669900   -0.224505    1.477958
     23          1           0       -1.935868    2.207296   -0.378216
     24          1           0       -0.806743    2.080678    0.978345
     25          1           0       -2.541647    2.101882    1.277611
     26          1           0       -3.472101    0.124933   -0.980732
     27          1           0       -4.010434    0.290705    0.693922
     28          1           0       -3.440004   -1.271199    0.106220
 ---------------------------------------------------------------------

 SCF Done:  E(RB3LYP) =  -466.152807607     A.U. after    1 cycles

 The electronic state is 1-A.
 Alpha  occ. eigenvalues --  -19.13789 -19.13083 -10.22686 -10.22186 -10.21340
 Alpha  occ. eigenvalues --  -10.18853 -10.18515 -10.17571 -10.17085 -10.16154
 Alpha  occ. eigenvalues --   -1.02939  -1.01081  -0.81825  -0.75562  -0.71443
 Alpha  occ. eigenvalues --   -0.67986  -0.66953  -0.63102  -0.58577  -0.55301
 Alpha  occ. eigenvalues --   -0.50660  -0.48461  -0.47476  -0.45052  -0.44201
 Alpha  occ. eigenvalues --   -0.42838  -0.41585  -0.40853  -0.40625  -0.38408
 Alpha  occ. eigenvalues --   -0.38258  -0.36874  -0.35980  -0.34482  -0.33419
 Alpha  occ. eigenvalues --   -0.32020  -0.31846  -0.30712  -0.30320  -0.28470
 Alpha  occ. eigenvalues --   -0.23323
 Alpha virt. eigenvalues --    0.06197   0.08783   0.09917   0.11552   0.12437
 Alpha virt. eigenvalues --    0.13701   0.14317   0.14387   0.15440   0.15729
 Alpha virt. eigenvalues --    0.16796   0.16985   0.17960   0.18205   0.19033

 Mulliken charges:
               1
     1  C   -0.241810
     2  O   -0.247247
     3  C    0.094410
     4  C   -0.067482
     5  O   -0.419825
     6  C   -0.006473
     7  C   -0.392143
     8  C    0.050897
     9  C   -0.391139
    10  C   -0.401935
    11  H    0.118907
    12  H    0.092542
    13  H    0.128981
    14  H    0.047475
    15  H    0.089213
    16  H    0.119173
    17  H    0.280034
    18  H    0.066502
    19  H    0.110206
    20  H    0.127831
    21  H    0.104482
    22  H    0.071279
    23  H    0.114169
    24  H    0.102975
    25  H    0.110705
    26  H    0.111506
    27  H    0.107761
    28  H    0.119007
 Sum of Mulliken charges =  -0.00000

 Dipole moment (field-independent basis, Debye):
    X=             -1.0520    Y=              0.9383    Z=              1.3179  Tot=              1.9298
 Quadrupole moment (field-independent basis, Debye-Ang):
   XX=            -67.6843   YY=            -64.6868   ZZ=            -62.6840
   XY=             -1.1115   XZ=              3.8496   YZ=              1.4001

  Exact polarizability: 109.557  -2.232  95.941   2.493   1.486  84.848
 Approx polarizability: 136.333  -2.312 131.614   2.569   2.233 132.021

                      1                      2                      3
                      A                      A                      A
 Frequencies --     26.4987                75.5923                80.7381
 Red. masses --      3.5086                 2.7977                 2.0171
 Frc consts  --      0.0015                 0.0094                 0.0077
 IR Inten    --      0.2200                 0.2909                 2.2527

                      4                      5                      6
                      A                      A                      A
 Frequencies --    112.4963               175.1785               201.2142
 Red. masses --      2.8950                 1.5455                 2.0237
 Frc consts  --      0.0216                 0.0279                 0.0483
 IR Inten    --      2.1948                 1.9240                 0.6096

                      7                      8                      9
                      A                      A                      A
 Frequencies --    221.9996               226.1263               233.9456
 Red. masses --      1.6851                 1.3333                 1.3740
 Frc consts  --      0.0489                 0.0402                 0.0443
 IR Inten    --      2.7322                 1.4682                 0.4970

                     10                     11                     12
                      A                      A                      A
 Frequencies --    266.2374               300.3636               306.5950
 Red. masses --      1.1976                 2.5858                 1.3189
 Frc consts  --      0.0500                 0.1374                 0.0730
 IR Inten    --      1.5964                14.3218                66.5410

                     13                     14                     15
                      A                      A                      A
 Frequencies --    327.8879               342.2757               374.9116
 Red. masses --      2.8823                 2.2210                 2.2370
 Frc consts  --      0.1826                 0.1533                 0.1853
 IR Inten    --      0.9289                22.8633                 0.2681

                     16                     17                     18
                      A                      A                      A
 Frequencies --    399.2200               424.8632               484.8208
 Red. masses --      2.3971                 2.3489                 2.9324
 Frc consts  --      0.2251                 0.2498                 0.4061
 IR Inten    --      0.8766                 4.6504                 0.6564

                     19                     20                     21
                      A                      A                      A
 Frequencies --    503.7676               611.9617               798.5706
 Red. masses --      2.4620                 2.4889                 2.3383
 Frc consts  --      0.3681                 0.5492                 0.8786
 IR Inten    --     17.7435                 3.7672                 0.4149

                     22                     23                     24
                      A                      A                      A
 Frequencies --    860.1757               899.6524               926.5112
 Red. masses --      2.3303                 2.3526                 1.1904
 Frc consts  --      1.0159                 1.1219                 0.6021
 IR Inten    --     18.5779                 3.2542                 0.5950

                     25                     26                     27
                      A                      A                      A
 Frequencies --    944.1593               965.8803               989.3669
 Red. masses --      1.8466                 1.4592                 1.6371
 Frc consts  --      0.9699                 0.8021                 0.9441
 IR Inten    --      0.4103                 0.1295                16.8200

                     28                     29                     30
                      A                      A                      A
 Frequencies --   1002.8661              1024.2311              1076.9541
 Red. masses --      1.9427                 2.1808                 3.1384
 Frc consts  --      1.1512                 1.3479                 2.1446
 IR Inten    --     18.5317                44.9987                 2.4459

                     31                     32                     33
                      A                      A                      A
 Frequencies --   1093.1516              1121.8825              1146.7673
 Red. masses --      3.4781                 2.5956                 1.8868
 Frc consts  --      2.4488                 1.9248                 1.4619
 IR Inten    --     25.9570                91.7791                18.2333

                     34                     35                     36
                      A                      A                      A
 Frequencies --   1164.2697              1180.5570              1184.3010
 Red. masses --      2.5409                 2.1891                 1.2802
 Frc consts  --      2.0293                 1.7975                 1.0579
 IR Inten    --     80.2771                20.3135                 3.5288

                     37                     38                     39
                      A                      A                      A
 Frequencies --   1191.7790              1212.7286              1231.8850
 Red. masses --      1.7337                 1.5359                 1.6192
 Frc consts  --      1.4508                 1.3309                 1.4478
 IR Inten    --      2.6463                22.0310                 8.5349

                     40                     41                     42
                      A                      A                      A
 Frequencies --   1284.3278              1322.6001              1347.9640
 Red. masses --      1.3094                 1.2929                 1.3138
 Frc consts  --      1.2725                 1.3325                 1.4065
 IR Inten    --      8.6909                11.6329                 3.1164

                     43                     44                     45
                      A                      A                      A
 Frequencies --   1367.2896              1377.9286              1393.2580
 Red. masses --      1.3601                 1.3079                 1.2177
 Frc consts  --      1.4981                 1.4631                 1.3927
 IR Inten    --      1.5539                 1.4548                 4.8025

                     46                     47                     48
                      A                      A                      A
 Frequencies --   1395.5033              1404.5999              1411.2141
 Red. masses --      1.2869                 1.2231                 1.2503
 Frc consts  --      1.4765                 1.4217                 1.4671
 IR Inten    --      7.4516                 7.0042                15.9293

                     49                     50                     51
                      A                      A                      A
 Frequencies --   1414.5443              1423.9068              1476.1760
 Red. masses --      1.2297                 1.2121                 1.1042
 Frc consts  --      1.4497                 1.4480                 1.4177
 IR Inten    --     27.1488                 6.8930                 4.5721

                     52                     53                     54
                      A                      A                      A
 Frequencies --   1480.7607              1485.1747              1488.4466
 Red. masses --      1.0852                 1.0732                 1.0610
 Frc consts  --      1.4020                 1.3947                 1.3850
 IR Inten    --      2.3178                 2.7295                 0.1627

                     55                     56                     57
                      A                      A                      A
 Frequencies --   1491.1922              1496.3143              1503.6916
 Red. masses --      1.0562                 1.0549                 1.0426
 Frc consts  --      1.3838                 1.3915                 1.3890
 IR Inten    --      6.4487                 3.8209                11.9934

                     58                     59                     60
                      A                      A                      A
 Frequencies --   1506.0867              1519.6988              1523.4125
 Red. masses --      1.0589                 1.0480                 1.0540
 Frc consts  --      1.4151                 1.4260                 1.4412
 IR Inten    --      1.0759                 5.6660                 5.7643

                     61                     62                     63
                      A                      A                      A
 Frequencies --   2938.0648              2972.6000              2975.0205
 Red. masses --      1.0810                 1.0500                 1.0792
 Frc consts  --      5.4980                 5.4665                 5.6279
 IR Inten    --     29.8203                69.3322                 2.6185

                     64                     65                     66
                      A                      A                      A
 Frequencies --   2993.0103              3002.9713              3024.7792
 Red. masses --      1.0823                 1.0679                 1.0381
 Frc consts  --      5.7123                 5.6737                 5.5958
 IR Inten    --     23.5973                64.5528                21.7946

                     67                     68                     69
                      A                      A                      A
 Frequencies --   3030.2412              3047.8705              3067.7273
 Red. masses --      1.0390                 1.0394                 1.0809
 Frc consts  --      5.6212                 5.6888                 5.9933
 IR Inten    --     34.4606                20.8934                47.7357

                     70                     71                     72
                      A                      A                      A
 Frequencies --   3080.6582              3086.4802              3093.3417
 Red. masses --      1.0970                 1.0999                 1.0990
 Frc consts  --      6.1341                 6.1737                 6.1961
 IR Inten    --     25.1421                 2.1797                59.4927

                     73                     74                     75
                      A                      A                      A
 Frequencies --   3102.6597              3110.4004              3112.2762
 Red. masses --      1.0996                 1.1045                 1.1002
 Frc consts  --      6.2368                 6.2955                 6.2790
 IR Inten    --     38.4668                21.0697                43.1413

                     76                     77                     78
                      A                      A                      A
 Frequencies --   3122.5870              3142.9198              3812.3764
 Red. masses --      1.0971                 1.0991                 1.0661
 Frc consts  --      6.3027                 6.3969                 9.1295
 IR Inten    --     25.6401                17.1644                15.3291

 - Thermochemistry -
 -------------------
 Temperature   298.150 Kelvin.  Pressure   1.00000 Atm.
 Atom     1 has atomic number  6 and mass  12.00000

 Molecular mass:   146.13068 amu.
 Principal axes and moments of inertia in atomic units:
                           1         2         3
     Eigenvalues --  1003.330682206.567412787.80863
           X            0.99985  -0.01383   0.01088
           Y            0.01369   0.99983   0.01259
           Z           -0.01105  -0.01244   0.99986
 This molecule is an asymmetric top.
 Rotational symmetry number  1.
 Warning -- assumption of classical behavior for rotation
           may cause significant error
 Rotational temperatures (Kelvin)      0.08633     0.03925     0.03107
 Rotational constants (GHZ):           1.79875     0.81790     0.64737
 Zero-point vibrational energy     667172.1 (Joules/Mol)
                                  159.45795 (Kcal/Mol)
 Warning -- explicit consideration of  20 degrees of freedom as
           vibrations may cause significant error
 Vibrational temperatures:     38.13   108.76   116.16   161.86   252.04
          (Kelvin)            289.50   319.41   325.35   336.60   383.06
                              432.16   441.12   471.76   492.46   539.41
                              574.39   611.28   697.55   724.81   880.48
                             1148.96  1237.60  1294.40  1333.04  1358.43
                             1389.69  1423.48  1442.90  1473.64  1549.50
                             1572.80  1614.14  1649.94  1675.12  1698.56
                             1703.95  1714.70  1744.85  1772.41  1847.86
                             1902.93  1939.42  1967.22  1982.53  2004.59
                             2007.82  2020.91  2030.42  2035.21  2048.68
                             2123.89  2130.48  2136.84  2141.54  2145.49
                             2152.86  2163.48  2166.92  2186.51  2191.85
                             4227.22  4276.91  4280.39  4306.27  4320.61
                             4351.98  4359.84  4385.21  4413.78  4432.38
                             4440.76  4450.63  4464.04  4475.17  4477.87
                             4492.71  4521.96  5485.16

 Zero-point correction=                           0.254112 (Hartree/Particle)
 Thermal correction to Energy=                    0.267187
 Thermal correction to Enthalpy=                  0.268131
 Thermal correction to Gibbs Free Energy=         0.214932
 Sum of electronic and zero-point Energies=           -465.898695
 Sum of electronic and thermal Energies=              -465.885620
 Sum of electronic and thermal Enthalpies=            -465.884676
 Sum of electronic and thermal Free Energies=         -465.937875

                     E (Thermal)             CV                S
                      KCal/Mol        Cal/Mol-Kelvin    Cal/Mol-Kelvin
 Total                  167.662             47.670            111.967
 Electronic               0.000              0.000              0.000
 Translational            0.889              2.981             40.849
 Rotational               0.889              2.981             30.202
 Vibrational            165.885             41.709             40.916
 Vibration     1          0.593              1.984              6.076
 Vibration     2          0.599              1.965              4.002
 Vibration     3          0.600              1.962              3.873
 Vibration     4          0.607              1.939              3.225
 Vibration     5          0.627              1.873              2.379
 Vibration     6          0.638              1.838              2.122
 Vibration     7          0.648              1.808              1.943
 Vibration     8          0.650              1.801              1.909
 Vibration     9          0.654              1.789              1.848
 Vibration    10          0.672              1.735              1.621
 Vibration    11          0.693              1.673              1.415
 Vibration    12          0.697              1.661              1.381
 Vibration    13          0.711              1.620              1.270
 Vibration    14          0.721              1.591              1.202
 Vibration    15          0.746              1.524              1.060
 Vibration    16          0.765              1.472              0.966
 Vibration    17          0.787              1.416              0.876
 Vibration    18          0.841              1.284              0.697
 Vibration    19          0.859              1.242              0.649
 Vibration    20          0.971              1.007              0.430

                           ! Non-Optimized Parameters !
 Normal termination of Gaussian 16 at Mon May 22 09:31:38 2023.
