 Gaussian 16, Revision A.03,
 Gaussian 16:  ES64L-G16RevA.03 25-Dec-2016

 -----------------------------
 # opt freq b3lyp/6-31g(2df,p)
 -----------------------------

 -------------------
 Title Card Required
 -------------------
 Symbolic Z-matrix:
 Charge =  0 Multiplicity = 1

 SCF Done:  E(RB3LYP) =  -573.664119395     A.U. after   14 cycles
 SCF Done:  E(RB3LYP) =  -573.668192859     A.U. after   12 cycles
 SCF Done:  E(RB3LYP) =  -573.668555326     A.U. after   10 cycles
 SCF Done:  E(RB3LYP) =  -573.668585638     A.U. after    9 cycles
 SCF Done:  E(RB3LYP) =  -573.668585574     A.U. after    9 cycles
 SCF Done:  E(RB3LYP) =  -573.668587860     A.U. after    8 cycles
 SCF Done:  E(RB3LYP) =  -573.668587742     A.U. after    7 cycles
 SCF Done:  E(RB3LYP) =  -573.668588055     A.U. after    7 cycles
 Optimization completed.
    -- Stationary point found.
 Normal termination of Gaussian 16 at Sat May 27 16:56:40 2023.

 ----------------------------------------------------------------------
 #N Geom=AllCheck Guess=TCheck SCRF=Check GenChk RB3LYP/6-31G(2df,p) Fr
 eq
 ----------------------------------------------------------------------

 Structure from the checkpoint file:  "COCqdOrCdCOCCCdO.chk"
 -------------------
 Title Card Required
 -------------------
 Charge =  0 Multiplicity = 1

                         Standard orientation:
 ---------------------------------------------------------------------
 Center     Atomic      Atomic             Coordinates (Angstroms)
 Number     Number       Type             X           Y           Z
 ---------------------------------------------------------------------
      1          6           0        5.039899   -0.110739    0.000003
      2          8           0        3.749218   -0.726011    0.000001
      3          6           0        2.703217    0.134459   -0.000004
      4          8           0        2.837237    1.339477   -0.000002
      5          6           0        1.432142   -0.597204   -0.000001
      6          6           0        0.288850    0.099053   -0.000001
      7          8           0       -0.917894   -0.486408    0.000001
      8          6           0       -2.041433    0.393930   -0.000000
      9          6           0       -3.299419   -0.459654    0.000000
     10          6           0       -4.575184    0.365697    0.000003
     11          8           0       -5.678342   -0.111920   -0.000003
     12          1           0        5.759817   -0.929637    0.000008
     13          1           0        5.172592    0.514120    0.887278
     14          1           0        5.172598    0.514114   -0.887274
     15          1           0        1.444960   -1.679211    0.000000
     16          1           0        0.313648    1.187535   -0.000003
     17          1           0       -2.006033    1.040018   -0.888074
     18          1           0       -2.006034    1.040019    0.888072
     19          1           0       -3.313442   -1.116924    0.876930
     20          1           0       -3.313444   -1.116923   -0.876931
     21          1           0       -4.434849    1.472543    0.000021
 ---------------------------------------------------------------------

 SCF Done:  E(RB3LYP) =  -573.668588055     A.U. after    1 cycles

 The electronic state is 1-A.
 Alpha  occ. eigenvalues --  -19.19836 -19.17467 -19.15403 -19.11199 -10.29775
 Alpha  occ. eigenvalues --  -10.28985 -10.26821 -10.26046 -10.23139 -10.21482
 Alpha  occ. eigenvalues --  -10.18486  -1.09486  -1.09082  -1.06204  -1.00132
 Alpha  occ. eigenvalues --   -0.82370  -0.78075  -0.72257  -0.67641  -0.61971
 Alpha  occ. eigenvalues --   -0.59471  -0.55562  -0.54094  -0.51581  -0.50184
 Alpha  occ. eigenvalues --   -0.47653  -0.47275  -0.46609  -0.44226  -0.44189
 Alpha  occ. eigenvalues --   -0.43852  -0.40700  -0.39647  -0.39476  -0.37796
 Alpha  occ. eigenvalues --   -0.35850  -0.35536  -0.34987  -0.29290  -0.26738
 Alpha  occ. eigenvalues --   -0.26576  -0.24472
 Alpha virt. eigenvalues --   -0.04114  -0.02758   0.07525   0.08820   0.09211
 Alpha virt. eigenvalues --    0.10432   0.11669   0.12829   0.13586   0.14414
 Alpha virt. eigenvalues --    0.15277   0.15785   0.16428   0.17790   0.19019

 Mulliken charges:
               1
     1  C   -0.237592
     2  O   -0.245170
     3  C    0.477020
     4  O   -0.397548
     5  C   -0.364888
     6  C    0.156547
     7  O   -0.215529
     8  C   -0.087122
     9  C   -0.290560
    10  C    0.152514
    11  O   -0.234890
    12  H    0.129255
    13  H    0.137684
    14  H    0.137684
    15  H    0.114575
    16  H    0.133283
    17  H    0.122632
    18  H    0.122632
    19  H    0.153838
    20  H    0.153838
    21  H    0.081796
 Sum of Mulliken charges =  -0.00000

 Dipole moment (field-independent basis, Debye):
    X=              0.6902    Y=              0.0896    Z=              0.0000  Tot=              0.6960
 Quadrupole moment (field-independent basis, Debye-Ang):
   XX=            -76.0996   YY=            -65.7837   ZZ=            -62.1274
   XY=             -7.7623   XZ=             -0.0001   YZ=              0.0000

  Exact polarizability: 150.961  -4.257  79.054   0.000   0.000  56.456
 Approx polarizability: 177.860  -3.920 129.103   0.000   0.000  86.152

 ******    1 imaginary frequencies (negative Signs) ******

                      1                      2                      3
                      A                      A                      A
 Frequencies --    -89.8028                25.7500                37.5056
 Red. masses --      2.3227                 4.0079                 2.5229
 Frc consts  --      0.0110                 0.0016                 0.0021
 IR Inten    --      7.9166                 1.8486                 2.1363

                      4                      5                      6
                      A                      A                      A
 Frequencies --     57.5345                82.6714               116.1726
 Red. masses --      6.2119                 3.2356                 1.0910
 Frc consts  --      0.0121                 0.0130                 0.0087
 IR Inten    --      1.1286                 5.3541                 0.0000

                      7                      8                      9
                      A                      A                      A
 Frequencies --    135.8762               150.2867               203.5010
 Red. masses --      3.6244                 5.0894                 2.5238
 Frc consts  --      0.0394                 0.0677                 0.0616
 IR Inten    --      0.3582                 5.2981                 0.5068

                     10                     11                     12
                      A                      A                      A
 Frequencies --    244.7939               273.0029               276.1760
 Red. masses --      7.0356                 4.5343                 4.1361
 Frc consts  --      0.2484                 0.1991                 0.1859
 IR Inten    --      3.7013                 7.9024                 3.2501

                     13                     14                     15
                      A                      A                      A
 Frequencies --    354.4412               468.3279               499.7759
 Red. masses --      5.0689                 7.2717                 4.5576
 Frc consts  --      0.3752                 0.9397                 0.6707
 IR Inten    --     17.3170                 1.6440                 7.8877

                     16                     17                     18
                      A                      A                      A
 Frequencies --    587.8958               677.4231               740.7322
 Red. masses --      3.6306                 1.1758                 4.9080
 Frc consts  --      0.7393                 0.3179                 1.5866
 IR Inten    --     21.8252                 1.7762                 6.2095

                     19                     20                     21
                      A                      A                      A
 Frequencies --    754.5941               871.1690               877.2356
 Red. masses --      5.1317                 1.8054                 1.2449
 Frc consts  --      1.7216                 0.8073                 0.5645
 IR Inten    --      4.6527                26.1836                 3.9471

                     22                     23                     24
                      A                      A                      A
 Frequencies --    939.5008              1002.9918              1014.9970
 Red. masses --      5.8606                 1.1918                 3.6315
 Frc consts  --      3.0478                 0.7064                 2.2042
 IR Inten    --      4.2577                15.3837                30.2072

                     25                     26                     27
                      A                      A                      A
 Frequencies --   1046.1311              1061.6984              1105.0903
 Red. masses --      3.9883                 3.4836                 4.2063
 Frc consts  --      2.5717                 2.3135                 3.0266
 IR Inten    --     11.0180                48.7772                86.5703

                     28                     29                     30
                      A                      A                      A
 Frequencies --   1132.6363              1171.6799              1179.4597
 Red. masses --      1.8434                 3.2778                 1.2839
 Frc consts  --      1.3933                 2.6513                 1.0523
 IR Inten    --      1.2339               850.4537                 1.0069

                     31                     32                     33
                      A                      A                      A
 Frequencies --   1212.6739              1226.9616              1250.0363
 Red. masses --      1.6057                 1.2414                 2.3209
 Frc consts  --      1.3913                 1.1010                 2.1367
 IR Inten    --    121.0809                 0.8420               230.5477

                     34                     35                     36
                      A                      A                      A
 Frequencies --   1284.7669              1309.2535              1339.3927
 Red. masses --      1.5620                 1.0825                 1.3021
 Frc consts  --      1.5191                 1.0932                 1.3763
 IR Inten    --     35.2304                 0.1671                 4.4074

                     37                     38                     39
                      A                      A                      A
 Frequencies --   1360.1696              1424.7074              1442.6073
 Red. masses --      2.9132                 1.3336                 1.2053
 Frc consts  --      3.1754                 1.5949                 1.4778
 IR Inten    --     32.4793               106.0685                15.6585

                     40                     41                     42
                      A                      A                      A
 Frequencies --   1455.8490              1474.0185              1480.4880
 Red. masses --      1.1392                 1.2254                 1.0472
 Frc consts  --      1.4226                 1.5687                 1.3523
 IR Inten    --     11.1354                22.3172                 5.6805

                     43                     44                     45
                      A                      A                      A
 Frequencies --   1498.6954              1517.8342              1707.2122
 Red. masses --      1.0632                 1.0883                 5.9569
 Frc consts  --      1.4070                 1.4772                10.2293
 IR Inten    --      7.4790                16.6656               463.2059

                     46                     47                     48
                      A                      A                      A
 Frequencies --   1786.5603              1839.2535              2850.6528
 Red. masses --      9.9895                10.7658                 1.0816
 Frc consts  --     18.7859                21.4574                 5.1787
 IR Inten    --    177.8682               171.6067                99.4395

                     49                     50                     51
                      A                      A                      A
 Frequencies --   3000.1977              3040.8421              3047.7087
 Red. masses --      1.0555                 1.1070                 1.0299
 Frc consts  --      5.5978                 6.0312                 5.6365
 IR Inten    --     44.7152                24.7928                36.7805

                     52                     53                     54
                      A                      A                      A
 Frequencies --   3049.6262              3091.6649              3119.6388
 Red. masses --      1.0597                 1.1021                 1.1052
 Frc consts  --      5.8066                 6.2068                 6.3372
 IR Inten    --      5.5776                 8.2439                21.4009

                     55                     56                     57
                      A                      A                      A
 Frequencies --   3153.3660              3155.6620              3220.1472
 Red. masses --      1.1055                 1.0906                 1.0917
 Frc consts  --      6.4768                 6.3987                 6.6698
 IR Inten    --     18.7000                 3.1052                 3.1717

 - Thermochemistry -
 -------------------
 Temperature   298.150 Kelvin.  Pressure   1.00000 Atm.
 Atom     1 has atomic number  6 and mass  12.00000

 Molecular mass:   158.05791 amu.
 Principal axes and moments of inertia in atomic units:
                           1         2         3
     Eigenvalues --   246.867856703.127916916.23792
           X            1.00000  -0.00294  -0.00000
           Y            0.00294   1.00000   0.00000
           Z            0.00000  -0.00000   1.00000
 This molecule is an asymmetric top.
 Rotational symmetry number  1.
 Rotational temperatures (Kelvin)      0.35085     0.01292     0.01252
 Rotational constants (GHZ):           7.31056     0.26924     0.26094
    1 imaginary frequencies ignored.
 Zero-point vibrational energy     433221.9 (Joules/Mol)
                                  103.54251 (Kcal/Mol)
 Warning -- explicit consideration of  15 degrees of freedom as
           vibrations may cause significant error
 Vibrational temperatures:     37.05    53.96    82.78   118.95   167.15
          (Kelvin)            195.50   216.23   292.79   352.20   392.79
                              397.36   509.96   673.82   719.07   845.85
                              974.66  1065.75  1085.69  1253.42  1262.15
                             1351.73  1443.08  1460.35  1505.15  1527.55
                             1589.98  1629.61  1685.79  1696.98  1744.77
                             1765.32  1798.52  1848.49  1883.72  1927.09
                             1956.98  2049.84  2075.59  2094.64  2120.78
                             2130.09  2156.29  2183.82  2456.30  2570.46
                             2646.28  4101.45  4316.62  4375.09  4384.97
                             4387.73  4448.22  4488.46  4536.99  4540.29
                             4633.07

 Zero-point correction=                           0.165005 (Hartree/Particle)
 Thermal correction to Energy=                    0.176961
 Thermal correction to Enthalpy=                  0.177905
 Thermal correction to Gibbs Free Energy=         0.124394
 Sum of electronic and zero-point Energies=           -573.503583
 Sum of electronic and thermal Energies=              -573.491627
 Sum of electronic and thermal Enthalpies=            -573.490683
 Sum of electronic and thermal Free Energies=         -573.544194

                     E (Thermal)             CV                S
                      KCal/Mol        Cal/Mol-Kelvin    Cal/Mol-Kelvin
 Total                  111.045             39.866            112.623
 Electronic               0.000              0.000              0.000
 Translational            0.889              2.981             41.083
 Rotational               0.889              2.981             30.816
 Vibrational            109.267             33.904             40.725
 Vibration     1          0.593              1.985              6.133
 Vibration     2          0.594              1.982              5.387
 Vibration     3          0.596              1.974              4.540
 Vibration     4          0.600              1.961              3.826
 Vibration     5          0.608              1.936              3.163
 Vibration     6          0.614              1.918              2.861
 Vibration     7          0.618              1.902              2.669
 Vibration     8          0.639              1.835              2.101
 Vibration     9          0.660              1.771              1.768
 Vibration    10          0.676              1.723              1.577
 Vibration    11          0.678              1.717              1.557
 Vibration    12          0.730              1.566              1.146
 Vibration    13          0.826              1.320              0.742
 Vibration    14          0.855              1.251              0.659
 Vibration    15          0.945              1.058              0.471

 Optimization completed.
    -- Stationary point found.
 Normal termination of Gaussian 16 at Sat May 27 17:24:42 2023.
