 Gaussian 16, Revision A.03,
 Gaussian 16:  ES64L-G16RevA.03 25-Dec-2016

 -----------------------------
 # opt freq b3lyp/6-31g(2df,p)
 -----------------------------

 -------------------
 Title Card Required
 -------------------
 Symbolic Z-matrix:
 Charge =  0 Multiplicity = 1

 SCF Done:  E(RB3LYP) =  -666.008868752     A.U. after   22 cycles
 SCF Done:  E(RB3LYP) =  -666.076934422     A.U. after   16 cycles
 SCF Done:  E(RB3LYP) =  -666.146942255     A.U. after   16 cycles
 SCF Done:  E(RB3LYP) =  -666.196224484     A.U. after   15 cycles
 SCF Done:  E(RB3LYP) =  -666.233762800     A.U. after   14 cycles
 SCF Done:  E(RB3LYP) =  -666.253294068     A.U. after   14 cycles
 SCF Done:  E(RB3LYP) =  -666.262496723     A.U. after   14 cycles
 SCF Done:  E(RB3LYP) =  -666.268799678     A.U. after   13 cycles
 SCF Done:  E(RB3LYP) =  -666.272093999     A.U. after   13 cycles
 SCF Done:  E(RB3LYP) =  -666.273358035     A.U. after   13 cycles
 SCF Done:  E(RB3LYP) =  -666.277623344     A.U. after   11 cycles
 SCF Done:  E(RB3LYP) =  -666.277691799     A.U. after   11 cycles
 SCF Done:  E(RB3LYP) =  -666.277704412     A.U. after   10 cycles
 SCF Done:  E(RB3LYP) =  -666.277708185     A.U. after   10 cycles
 SCF Done:  E(RB3LYP) =  -666.277709603     A.U. after    8 cycles
 SCF Done:  E(RB3LYP) =  -666.277710002     A.U. after    8 cycles
 SCF Done:  E(RB3LYP) =  -666.277710163     A.U. after    7 cycles
 SCF Done:  E(RB3LYP) =  -666.277710218     A.U. after    7 cycles
 SCF Done:  E(RB3LYP) =  -666.277710253     A.U. after    7 cycles
 Optimization completed.
    -- Stationary point found.
 Normal termination of Gaussian 16 at Mon May 29 22:37:28 2023.

 ----------------------------------------------------------------------
 #N Geom=AllCheck Guess=TCheck SCRF=Check GenChk RB3LYP/6-31G(2df,p) Fr
 eq
 ----------------------------------------------------------------------

 Structure from the checkpoint file:  "CON1CdNCdC2CdCCqdNrCdC2CC1.chk"
 -------------------
 Title Card Required
 -------------------
 Charge =  0 Multiplicity = 1

                         Standard orientation:
 ---------------------------------------------------------------------
 Center     Atomic      Atomic             Coordinates (Angstroms)
 Number     Number       Type             X           Y           Z
 ---------------------------------------------------------------------
      1          6           0       -4.604022   -0.844053    0.389212
      2          8           0       -3.462296   -0.752811   -0.455394
      3          7           0       -2.459661    0.029244    0.176715
      4          6           0       -2.173420    1.145644   -0.585060
      5          7           0       -1.172844    1.928418   -0.545214
      6          6           0       -0.001796    1.901040    0.183748
      7          6           0        0.983639    0.979972    0.265022
      8          6           0        2.350711    1.164351    0.831952
      9          6           0        3.270019    0.900698   -0.131907
     10          6           0        3.552751   -0.577754   -0.134389
     11          7           0        4.577144   -1.324709   -0.051787
     12          6           0        2.175081   -1.147223   -0.327994
     13          6           0        1.003630   -0.454680   -0.174924
     14          6           0       -0.308618   -1.203985   -0.323686
     15          6           0       -1.391305   -0.814587    0.716237
     16          1           0       -5.320628   -1.463322   -0.155726
     17          1           0       -5.036751    0.144133    0.581748
     18          1           0       -4.360977   -1.324502    1.345154
     19          1           0       -2.983755    1.367011   -1.279114
     20          1           0        0.228795    2.871913    0.619989
     21          1           0        2.506397    0.699356    1.809111
     22          1           0        3.023325    1.265129   -1.132697
     23          1           0        5.417043   -0.757135    0.074234
     24          1           0        2.141692   -2.195215   -0.616044
     25          1           0       -0.111416   -2.276440   -0.254653
     26          1           0       -0.722969   -1.036064   -1.325279
     27          1           0       -0.947192   -0.293754    1.566223
     28          1           0       -1.887691   -1.705827    1.102933
 ---------------------------------------------------------------------

 SCF Done:  E(RB3LYP) =  -666.277710253     A.U. after    1 cycles

 The electronic state is 1-A.
 Alpha  occ. eigenvalues --  -19.19725 -14.40950 -14.32761 -14.30446 -10.26767
 Alpha  occ. eigenvalues --  -10.24517 -10.23826 -10.23648 -10.22211 -10.21637
 Alpha  occ. eigenvalues --  -10.20414 -10.20129 -10.19090 -10.18627 -10.18038
 Alpha  occ. eigenvalues --   -1.10335  -0.95076  -0.90247  -0.87825  -0.85090
 Alpha  occ. eigenvalues --   -0.78821  -0.75729  -0.72766  -0.69527  -0.68512
 Alpha  occ. eigenvalues --   -0.63614  -0.59493  -0.57471  -0.55022  -0.54358
 Alpha  occ. eigenvalues --   -0.52729  -0.49657  -0.48562  -0.47598  -0.47031
 Alpha  occ. eigenvalues --   -0.45762  -0.44985  -0.44100  -0.41786  -0.40777
 Alpha  occ. eigenvalues --   -0.40306  -0.39660  -0.37924  -0.37130  -0.36058
 Alpha  occ. eigenvalues --   -0.33794  -0.33067  -0.31783  -0.29866  -0.26904
 Alpha  occ. eigenvalues --   -0.26171  -0.24733  -0.21616  -0.20394
 Alpha virt. eigenvalues --   -0.05155  -0.05048  -0.00630   0.04959   0.06761
 Alpha virt. eigenvalues --    0.07933   0.09228   0.11101   0.12056   0.12291
 Alpha virt. eigenvalues --    0.13299   0.13773   0.13897   0.14336   0.14518

 Mulliken charges:
               1
     1  C   -0.224246
     2  O   -0.245283
     3  N   -0.016503
     4  C    0.122614
     5  N   -0.268640
     6  C   -0.152580
     7  C    0.182016
     8  C   -0.213641
     9  C   -0.215298
    10  C    0.274731
    11  N   -0.518575
    12  C   -0.174654
    13  C    0.242929
    14  C   -0.315263
    15  C   -0.168082
    16  H    0.137342
    17  H    0.125450
    18  H    0.119694
    19  H    0.130881
    20  H    0.117568
    21  H    0.098839
    22  H    0.109002
    23  H    0.225286
    24  H    0.102357
    25  H    0.119261
    26  H    0.139717
    27  H    0.139461
    28  H    0.125618
 Sum of Mulliken charges =  -0.00000

 Dipole moment (field-independent basis, Debye):
    X=             -4.3962    Y=             -0.7885    Z=              1.1303  Tot=              4.6071
 Quadrupole moment (field-independent basis, Debye-Ang):
   XX=            -84.2162   YY=            -92.5693   ZZ=            -86.7447
   XY=              9.1236   XZ=             -2.6598   YZ=             -0.1005

  Exact polarizability: 241.541 -16.951 136.257   2.655   1.664  91.128
 Approx polarizability: 357.278 -53.759 246.789  -2.173   6.857 161.536

                      1                      2                      3
                      A                      A                      A
 Frequencies --     37.6170                55.0259                86.1269
 Red. masses --      3.7989                 3.8641                 3.7049
 Frc consts  --      0.0032                 0.0069                 0.0162
 IR Inten    --      0.0493                 0.3785                 2.0805

                      4                      5                      6
                      A                      A                      A
 Frequencies --    132.4195               149.7637               187.2611
 Red. masses --      3.2469                 4.0749                 3.0417
 Frc consts  --      0.0335                 0.0538                 0.0628
 IR Inten    --      3.0347                 1.2042                 5.6610

                      7                      8                      9
                      A                      A                      A
 Frequencies --    201.5866               212.6145               239.4381
 Red. masses --      1.4855                 4.5439                 3.9959
 Frc consts  --      0.0356                 0.1210                 0.1350
 IR Inten    --      1.0805                 1.0884                 6.1565

                     10                     11                     12
                      A                      A                      A
 Frequencies --    261.8329               342.8796               390.3156
 Red. masses --      2.4659                 3.0030                 2.5786
 Frc consts  --      0.0996                 0.2080                 0.2315
 IR Inten    --      9.2960                 2.8704                 3.7675

                     13                     14                     15
                      A                      A                      A
 Frequencies --    407.4056               415.6694               425.6984
 Red. masses --      4.2668                 3.4633                 4.5766
 Frc consts  --      0.4173                 0.3526                 0.4886
 IR Inten    --      6.5625                 3.0821                 3.4898

                     16                     17                     18
                      A                      A                      A
 Frequencies --    467.7695               476.0432               520.0104
 Red. masses --      2.9713                 3.3097                 3.5036
 Frc consts  --      0.3831                 0.4419                 0.5582
 IR Inten    --      6.3742                 2.6729                23.8821

                     19                     20                     21
                      A                      A                      A
 Frequencies --    577.7483               586.8040               620.0808
 Red. masses --      3.7184                 3.9829                 4.1848
 Frc consts  --      0.7313                 0.8080                 0.9480
 IR Inten    --     43.5990                19.3862                26.5614

                     22                     23                     24
                      A                      A                      A
 Frequencies --    655.2446               677.3298               731.9315
 Red. masses --      4.2688                 5.3692                 2.4138
 Frc consts  --      1.0799                 1.4513                 0.7619
 IR Inten    --     14.9310                18.0274                98.9815

                     25                     26                     27
                      A                      A                      A
 Frequencies --    752.3077               763.5756               821.3841
 Red. masses --      2.0601                 4.7271                 3.2563
 Frc consts  --      0.6869                 1.6239                 1.2944
 IR Inten    --     43.4783                 1.8897                20.6301

                     28                     29                     30
                      A                      A                      A
 Frequencies --    852.9842               888.4794               897.7612
 Red. masses --      1.8013                 2.3798                 2.4371
 Frc consts  --      0.7722                 1.1068                 1.1573
 IR Inten    --     22.6177                34.4326                10.3610

                     31                     32                     33
                      A                      A                      A
 Frequencies --    925.2789               928.3935               967.2652
 Red. masses --      1.4881                 1.5441                 1.4758
 Frc consts  --      0.7506                 0.7841                 0.8135
 IR Inten    --     23.5922                22.9337                16.8166

                     34                     35                     36
                      A                      A                      A
 Frequencies --    984.2172               994.1176              1023.1469
 Red. masses --      2.8178                 2.9054                 2.9595
 Frc consts  --      1.6082                 1.6917                 1.8253
 IR Inten    --    119.0199                73.3202                 4.2783

                     37                     38                     39
                      A                      A                      A
 Frequencies --   1039.5654              1073.6479              1084.2531
 Red. masses --      3.2684                 4.7131                 2.2810
 Frc consts  --      2.0811                 3.2010                 1.5799
 IR Inten    --     17.9083                37.2717                11.3711

                     40                     41                     42
                      A                      A                      A
 Frequencies --   1102.4756              1111.1381              1174.5221
 Red. masses --      2.8719                 2.1385                 2.4362
 Frc consts  --      2.0566                 1.5556                 1.9801
 IR Inten    --     27.2154                36.4592                 1.8633

                     43                     44                     45
                      A                      A                      A
 Frequencies --   1179.2680              1214.9065              1215.6559
 Red. masses --      1.2871                 1.4879                 1.1681
 Frc consts  --      1.0546                 1.2940                 1.0171
 IR Inten    --      5.3102                 2.6341                 2.2310

                     46                     47                     48
                      A                      A                      A
 Frequencies --   1250.7073              1255.8634              1291.5016
 Red. masses --      1.9637                 1.2301                 1.9382
 Frc consts  --      1.8098                 1.1430                 1.9047
 IR Inten    --     63.7910                11.5460                 7.4421

                     49                     50                     51
                      A                      A                      A
 Frequencies --   1300.7453              1338.7545              1352.1297
 Red. masses --      1.7160                 1.4580                 1.3710
 Frc consts  --      1.7106                 1.5396                 1.4768
 IR Inten    --     62.3240                28.2048                10.3363

                     52                     53                     54
                      A                      A                      A
 Frequencies --   1356.3125              1380.3698              1386.4309
 Red. masses --      1.3262                 1.2562                 1.3388
 Frc consts  --      1.4374                 1.4103                 1.5162
 IR Inten    --      2.8260                14.2909                 3.5409

                     55                     56                     57
                      A                      A                      A
 Frequencies --   1440.4666              1463.8277              1467.2851
 Red. masses --      1.2899                 1.1436                 1.0747
 Frc consts  --      1.5769                 1.4437                 1.3632
 IR Inten    --      0.9425                 4.9957                 5.5888

                     58                     59                     60
                      A                      A                      A
 Frequencies --   1476.5717              1477.9690              1506.1136
 Red. masses --      1.0506                 1.1002                 1.0576
 Frc consts  --      1.3495                 1.4159                 1.4135
 IR Inten    --      4.4149                18.9633                17.6224

                     61                     62                     63
                      A                      A                      A
 Frequencies --   1529.1185              1552.4441              1648.8292
 Red. masses --      5.3508                 6.6106                 7.6688
 Frc consts  --      7.3714                 9.3870                12.2836
 IR Inten    --      8.0763                44.9044               106.2291

                     64                     65                     66
                      A                      A                      A
 Frequencies --   1704.6437              1747.5486              3012.7860
 Red. masses --      9.2902                10.3472                 1.0321
 Frc consts  --     15.9054                18.6179                 5.5194
 IR Inten    --    314.9506               477.0879                52.5693

                     67                     68                     69
                      A                      A                      A
 Frequencies --   3037.0850              3070.1014              3078.6959
 Red. masses --      1.0661                 1.0855                 1.0839
 Frc consts  --      5.7937                 6.0282                 6.0529
 IR Inten    --      6.1357                13.5062                26.9457

                     70                     71                     72
                      A                      A                      A
 Frequencies --   3080.5810              3082.9919              3095.5081
 Red. masses --      1.1045                 1.0686                 1.0879
 Frc consts  --      6.1756                 5.9845                 6.1419
 IR Inten    --     31.7557                 9.5017                15.8880

                     73                     74                     75
                      A                      A                      A
 Frequencies --   3129.2532              3131.7689              3132.9774
 Red. masses --      1.1019                 1.1031                 1.0877
 Frc consts  --      6.3575                 6.3745                 6.2901
 IR Inten    --     19.7601                 3.1449                25.0909

                     76                     77                     78
                      A                      A                      A
 Frequencies --   3138.6743              3162.5001              3464.0685
 Red. masses --      1.0896                 1.0892                 1.0746
 Frc consts  --      6.3245                 6.4183                 7.5977
 IR Inten    --     10.6244                 7.5682                 2.3520

 - Thermochemistry -
 -------------------
 Temperature   298.150 Kelvin.  Pressure   1.00000 Atm.
 Atom     1 has atomic number  6 and mass  12.00000

 Molecular mass:   203.10586 amu.
 Principal axes and moments of inertia in atomic units:
                           1         2         3
     Eigenvalues --  1131.934745483.558676275.44801
           X            0.99995   0.00887  -0.00449
           Y           -0.00888   0.99995  -0.00356
           Z            0.00446   0.00360   0.99998
 This molecule is an asymmetric top.
 Rotational symmetry number  1.
 Warning -- assumption of classical behavior for rotation
           may cause significant error
 Rotational temperatures (Kelvin)      0.07652     0.01580     0.01380
 Rotational constants (GHZ):           1.59439     0.32912     0.28759
 Zero-point vibrational energy     594529.6 (Joules/Mol)
                                  142.09598 (Kcal/Mol)
 Warning -- explicit consideration of  21 degrees of freedom as
           vibrations may cause significant error
 Vibrational temperatures:     54.12    79.17   123.92   190.52   215.48
          (Kelvin)            269.43   290.04   305.90   344.50   376.72
                              493.33   561.58   586.17   598.06   612.49
                              673.02   684.92   748.18   831.25   844.28
                              892.16   942.75   974.53  1053.09  1082.40
                             1098.62  1181.79  1227.25  1278.32  1291.68
                             1331.27  1335.75  1391.68  1416.07  1430.31
                             1472.08  1495.70  1544.74  1560.00  1586.22
                             1598.68  1689.88  1696.70  1747.98  1749.06
                             1799.49  1806.91  1858.18  1871.48  1926.17
                             1945.41  1951.43  1986.04  1994.76  2072.51
                             2106.12  2111.10  2124.46  2126.47  2166.96
                             2200.06  2233.62  2372.30  2452.60  2514.33
                             4334.73  4369.69  4417.19  4429.56  4432.27
                             4435.74  4453.75  4502.30  4505.92  4507.66
                             4515.85  4550.13  4984.02

 Zero-point correction=                           0.226444 (Hartree/Particle)
 Thermal correction to Energy=                    0.239833
 Thermal correction to Enthalpy=                  0.240778
 Thermal correction to Gibbs Free Energy=         0.186133
 Sum of electronic and zero-point Energies=           -666.051266
 Sum of electronic and thermal Energies=              -666.037877
 Sum of electronic and thermal Enthalpies=            -666.036933
 Sum of electronic and thermal Free Energies=         -666.091578

                     E (Thermal)             CV                S
                      KCal/Mol        Cal/Mol-Kelvin    Cal/Mol-Kelvin
 Total                  150.498             52.065            115.010
 Electronic               0.000              0.000              0.000
 Translational            0.889              2.981             41.830
 Rotational               0.889              2.981             32.032
 Vibrational            148.720             46.104             41.147
 Vibration     1          0.594              1.982              5.381
 Vibration     2          0.596              1.976              4.628
 Vibration     3          0.601              1.959              3.746
 Vibration     4          0.613              1.921              2.911
 Vibration     5          0.618              1.903              2.675
 Vibration     6          0.632              1.857              2.255
 Vibration     7          0.638              1.838              2.119
 Vibration     8          0.644              1.822              2.021
 Vibration     9          0.657              1.780              1.807
 Vibration    10          0.669              1.743              1.650
 Vibration    11          0.722              1.590              1.199
 Vibration    12          0.758              1.491              0.999
 Vibration    13          0.772              1.454              0.936
 Vibration    14          0.779              1.436              0.907
 Vibration    15          0.788              1.414              0.873
 Vibration    16          0.825              1.322              0.744
 Vibration    17          0.833              1.303              0.721
 Vibration    18          0.875              1.206              0.610
 Vibration    19          0.934              1.079              0.490
 Vibration    20          0.944              1.060              0.473
 Vibration    21          0.980              0.990              0.416

                           ! Non-Optimized Parameters !
 Normal termination of Gaussian 16 at Tue May 30 00:38:46 2023.
