 Gaussian 16, Revision A.03,
 Gaussian 16:  ES64L-G16RevA.03 25-Dec-2016

 -----------------------------
 # opt freq b3lyp/6-31g(2df,p)
 -----------------------------

 -------------------
 Title Card Required
 -------------------
 Symbolic Z-matrix:
 Charge =  0 Multiplicity = 1

 SCF Done:  E(RB3LYP) =  -1917.23978152     A.U. after   18 cycles
 SCF Done:  E(RB3LYP) =  -1917.29764259     A.U. after   15 cycles
 SCF Done:  E(RB3LYP) =  -1917.35610099     A.U. after   15 cycles
 SCF Done:  E(RB3LYP) =  -1917.35691090     A.U. after   17 cycles
 SCF Done:  E(RB3LYP) =  -1917.39855648     A.U. after   16 cycles
 SCF Done:  E(RB3LYP) =  -1917.30832679     A.U. after   17 cycles
 SCF Done:  E(RB3LYP) =  -1917.40923311     A.U. after   15 cycles
 SCF Done:  E(RB3LYP) =  -1917.41412080     A.U. after   12 cycles
 SCF Done:  E(RB3LYP) =  -1917.42780428     A.U. after   13 cycles
 SCF Done:  E(RB3LYP) =  -1917.44949846     A.U. after   13 cycles
 SCF Done:  E(RB3LYP) =  -1917.52277277     A.U. after    9 cycles
 SCF Done:  E(RB3LYP) =  -1917.52288693     A.U. after   13 cycles
 SCF Done:  E(RB3LYP) =  -1917.52300694     A.U. after   12 cycles
 SCF Done:  E(RB3LYP) =  -1917.52309174     A.U. after   11 cycles
 SCF Done:  E(RB3LYP) =  -1917.52311037     A.U. after   10 cycles
 SCF Done:  E(RB3LYP) =  -1917.52311323     A.U. after   10 cycles
 SCF Done:  E(RB3LYP) =  -1917.52311397     A.U. after    8 cycles
 SCF Done:  E(RB3LYP) =  -1917.52311410     A.U. after    8 cycles
 SCF Done:  E(RB3LYP) =  -1917.52311419     A.U. after    7 cycles
 Optimization completed.
    -- Stationary point found.
 Normal termination of Gaussian 16 at Sun May 28 04:26:54 2023.

 ----------------------------------------------------------------------
 #N Geom=AllCheck Guess=TCheck SCRF=Check GenChk RB3LYP/6-31G(2df,p) Fr
 eq
 ----------------------------------------------------------------------

 Structure from the checkpoint file:  "CON[PH]q[PH]qdOrCOrd[SH]qdOrS.chk"
 -------------------
 Title Card Required
 -------------------
 Charge =  0 Multiplicity = 1

                         Standard orientation:
 ---------------------------------------------------------------------
 Center     Atomic      Atomic             Coordinates (Angstroms)
 Number     Number       Type             X           Y           Z
 ---------------------------------------------------------------------
      1          6           0       -2.984210    2.579712   -0.086564
      2          8           0       -2.295379    1.342925   -0.219225
      3          7           0       -2.704767    0.465387    0.863343
      4         15           0       -1.414637   -0.552581    1.435387
      5         15           0       -0.930236   -1.538255   -0.523934
      6          8           0       -2.234423   -1.972470   -1.107179
      7          6           0        0.068458   -0.423374   -1.643436
      8          8           0        0.354052    0.859558   -1.119616
      9         16           0        2.495490    0.175414    1.064249
     10          8           0        1.809210   -1.133749    0.927382
     11         16           0        3.607380    0.747869   -0.683025
     12          1           0       -2.622876    3.212082   -0.902161
     13          1           0       -2.769372    3.049723    0.879161
     14          1           0       -4.066755    2.439630   -0.188712
     15          1           0       -3.409398   -0.146062    0.441583
     16          1           0       -0.440596    0.469620    1.508261
     17          1           0       -0.039643   -2.589397   -0.197043
     18          1           0       -0.514200   -0.369389   -2.573849
     19          1           0        1.023910   -0.912553   -1.849690
     20          1           0       -0.489838    1.252143   -0.836663
     21          1           0        3.716030   -0.079687    1.661512
     22          1           0        2.500109    1.298060   -1.228071
 ---------------------------------------------------------------------

 SCF Done:  E(RB3LYP) =  -1917.52311419     A.U. after    1 cycles

 The electronic state is 1-A.
 Alpha  occ. eigenvalues --  -89.01925 -88.89697 -77.13563 -77.10334 -19.19708
 Alpha  occ. eigenvalues --  -19.15816 -19.14573 -19.08204 -14.38692 -10.24286
 Alpha  occ. eigenvalues --  -10.24155  -8.06670  -7.96554  -6.59834  -6.57450
 Alpha  occ. eigenvalues --   -6.03062  -6.02965  -6.02473  -5.92928  -5.92632
 Alpha  occ. eigenvalues --   -5.92097  -4.76119  -4.76039  -4.75934  -4.73763
 Alpha  occ. eigenvalues --   -4.73585  -4.73226  -1.08150  -1.05032  -1.03468
 Alpha  occ. eigenvalues --   -0.94934  -0.84750  -0.78971  -0.70868  -0.68568
 Alpha  occ. eigenvalues --   -0.67311  -0.63954  -0.56506  -0.52505  -0.52179
 Alpha  occ. eigenvalues --   -0.49115  -0.47709  -0.47010  -0.45682  -0.45433
 Alpha  occ. eigenvalues --   -0.43219  -0.42906  -0.42204  -0.40639  -0.39421
 Alpha  occ. eigenvalues --   -0.38306  -0.36722  -0.34786  -0.31264  -0.30575
 Alpha  occ. eigenvalues --   -0.29930  -0.28718  -0.28171  -0.27626  -0.27029
 Alpha  occ. eigenvalues --   -0.25557  -0.23578
 Alpha virt. eigenvalues --   -0.05985  -0.01006  -0.00035   0.00764   0.02142
 Alpha virt. eigenvalues --    0.04265   0.05650   0.06103   0.07925   0.08645
 Alpha virt. eigenvalues --    0.11078   0.11595   0.12822   0.13731   0.14346

 Mulliken charges:
               1
     1  C   -0.216460
     2  O   -0.268793
     3  N   -0.202696
     4  P   -0.011525
     5  P    0.255366
     6  O   -0.346921
     7  C   -0.132934
     8  O   -0.425773
     9  S    0.238114
    10  O   -0.298651
    11  S   -0.276599
    12  H    0.132686
    13  H    0.127988
    14  H    0.127856
    15  H    0.269544
    16  H    0.069890
    17  H    0.042497
    18  H    0.133527
    19  H    0.141507
    20  H    0.306741
    21  H    0.116807
    22  H    0.217827
 Sum of Mulliken charges =   0.00000

 Dipole moment (field-independent basis, Debye):
    X=              1.5513    Y=              3.8232    Z=              0.7972  Tot=              4.2023
 Quadrupole moment (field-independent basis, Debye-Ang):
   XX=            -91.9495   YY=            -95.3455   ZZ=            -93.9768
   XY=             -9.8680   XZ=              2.0831   YZ=             -1.7762

  Exact polarizability: 149.095   1.577 121.894  -9.137  -5.365 128.041
 Approx polarizability: 224.154  17.075 201.678 -18.435 -13.935 225.213

                      1                      2                      3
                      A                      A                      A
 Frequencies --     30.2126                40.9535                49.0638
 Red. masses --      3.8261                 8.3168                 9.3582
 Frc consts  --      0.0021                 0.0082                 0.0133
 IR Inten    --      0.6640                 1.7754                 2.8863

                      4                      5                      6
                      A                      A                      A
 Frequencies --     64.9137                76.5961                86.3165
 Red. masses --      7.0828                 4.1799                 7.0516
 Frc consts  --      0.0176                 0.0144                 0.0310
 IR Inten    --      0.4908                 7.4780                 2.5894

                      7                      8                      9
                      A                      A                      A
 Frequencies --     90.5248               104.7080               126.8366
 Red. masses --      5.8601                 3.2613                 3.3776
 Frc consts  --      0.0283                 0.0211                 0.0320
 IR Inten    --      7.8739                 0.4371                 5.2634

                     10                     11                     12
                      A                      A                      A
 Frequencies --    140.8934               156.2080               194.0212
 Red. masses --      6.0065                 7.2016                 2.9586
 Frc consts  --      0.0703                 0.1035                 0.0656
 IR Inten    --     14.0817                 6.5912                 3.3635

                     13                     14                     15
                      A                      A                      A
 Frequencies --    210.7904               274.7846               284.0225
 Red. masses --      1.7454                 4.8543                10.9176
 Frc consts  --      0.0457                 0.2160                 0.5189
 IR Inten    --      1.4869                 4.0838                 2.1268

                     16                     17                     18
                      A                      A                      A
 Frequencies --    300.4065               320.1109               394.6549
 Red. masses --      4.0423                 4.6121                 4.4603
 Frc consts  --      0.2149                 0.2785                 0.4093
 IR Inten    --     11.4119                13.9487                 6.8100

                     19                     20                     21
                      A                      A                      A
 Frequencies --    419.7254               441.7503               446.9459
 Red. masses --      6.4556                 3.2397                 5.6929
 Frc consts  --      0.6701                 0.3725                 0.6700
 IR Inten    --      6.3028                36.7656                15.8794

                     22                     23                     24
                      A                      A                      A
 Frequencies --    467.6199               634.7417               658.3220
 Red. masses --      1.4576                 1.1293                 2.5410
 Frc consts  --      0.1878                 0.2681                 0.6488
 IR Inten    --     23.3906                55.0866                 8.3537

                     25                     26                     27
                      A                      A                      A
 Frequencies --    676.6093               709.5564               741.0736
 Red. masses --      1.8147                 1.8934                 1.0643
 Frc consts  --      0.4895                 0.5616                 0.3444
 IR Inten    --     28.2694               147.5072                 1.2020

                     28                     29                     30
                      A                      A                      A
 Frequencies --    824.0834               833.2482               874.8295
 Red. masses --      1.2465                 1.4460                 6.0632
 Frc consts  --      0.4987                 0.5915                 2.7340
 IR Inten    --     20.6754                26.3886                13.2754

                     31                     32                     33
                      A                      A                      A
 Frequencies --    899.5892               982.5192               990.9472
 Red. masses --      1.2400                 1.1781                 1.1436
 Frc consts  --      0.5912                 0.6701                 0.6616
 IR Inten    --     52.2453                41.9738                18.8252

                     34                     35                     36
                      A                      A                      A
 Frequencies --   1009.3623              1060.7302              1067.6200
 Red. masses --      1.3355                 5.5411                 6.4817
 Frc consts  --      0.8017                 3.6733                 4.3528
 IR Inten    --     65.9946                64.0112                33.5925

                     37                     38                     39
                      A                      A                      A
 Frequencies --   1084.3902              1122.9237              1179.8089
 Red. masses --      1.1253                13.3891                 1.2708
 Frc consts  --      0.7796                 9.9473                 1.0422
 IR Inten    --     26.0928               196.9524                 2.1515

                     40                     41                     42
                      A                      A                      A
 Frequencies --   1196.6990              1212.9314              1219.6404
 Red. masses --      2.6489                 1.5407                 1.4722
 Frc consts  --      2.2350                 1.3355                 1.2903
 IR Inten    --    106.4504                19.9896                 4.8104

                     43                     44                     45
                      A                      A                      A
 Frequencies --   1303.8231              1428.9875              1447.2825
 Red. masses --      1.2630                 1.0988                 1.1792
 Frc consts  --      1.2650                 1.3220                 1.4553
 IR Inten    --     13.6312                 6.8198                14.5337

                     46                     47                     48
                      A                      A                      A
 Frequencies --   1459.6382              1474.2330              1478.7634
 Red. masses --      1.1113                 1.0662                 1.0735
 Frc consts  --      1.3950                 1.3653                 1.3831
 IR Inten    --      7.4486                 4.9321                11.5485

                     49                     50                     51
                      A                      A                      A
 Frequencies --   1509.5208              2373.6164              2390.6798
 Red. masses --      1.0571                 1.0401                 1.0405
 Frc consts  --      1.4193                 3.4528                 3.5038
 IR Inten    --     16.7348                97.9943                79.6613

                     52                     53                     54
                      A                      A                      A
 Frequencies --   2431.1748              2635.6378              3009.9359
 Red. masses --      1.0387                 1.0383                 1.0632
 Frc consts  --      3.6172                 4.2496                 5.6752
 IR Inten    --     40.5332                54.6420                19.2320

                     55                     56                     57
                      A                      A                      A
 Frequencies --   3018.4209              3089.3170              3105.1356
 Red. masses --      1.0300                 1.1056                 1.0983
 Frc consts  --      5.5288                 6.2171                 6.2395
 IR Inten    --     58.8412                29.0333                 7.3177

                     58                     59                     60
                      A                      A                      A
 Frequencies --   3122.8762              3430.0636              3627.5048
 Red. masses --      1.1036                 1.0746                 1.0667
 Frc consts  --      6.3413                 7.4490                 8.2704
 IR Inten    --     13.7881                15.8624               292.2876

 - Thermochemistry -
 -------------------
 Temperature   298.150 Kelvin.  Pressure   1.00000 Atm.
 Atom     1 has atomic number  6 and mass  12.00000

 Molecular mass:   238.96048 amu.
 Principal axes and moments of inertia in atomic units:
                           1         2         3
     Eigenvalues --  2091.535645132.983675511.97188
           X            0.99950  -0.03156   0.00321
           Y            0.03156   0.99950   0.00058
           Z           -0.00322  -0.00048   0.99999
 This molecule is an asymmetric top.
 Rotational symmetry number  1.
 Warning -- assumption of classical behavior for rotation
           may cause significant error
 Rotational temperatures (Kelvin)      0.04141     0.01687     0.01571
 Rotational constants (GHZ):           0.86288     0.35160     0.32742
 Zero-point vibrational energy     394996.7 (Joules/Mol)
                                   94.40648 (Kcal/Mol)
 Warning -- explicit consideration of  22 degrees of freedom as
           vibrations may cause significant error
 Vibrational temperatures:     43.47    58.92    70.59    93.40   110.20
          (Kelvin)            124.19   130.24   150.65   182.49   202.71
                              224.75   279.15   303.28   395.35   408.65
                              432.22   460.57   567.82   603.89   635.58
                              643.06   672.80   913.25   947.18   973.49
                             1020.89  1066.24  1185.67  1198.86  1258.68
                             1294.31  1413.63  1425.75  1452.25  1526.15
                             1536.07  1560.20  1615.64  1697.48  1721.78
                             1745.14  1754.79  1875.91  2055.99  2082.32
                             2100.09  2121.09  2127.61  2171.86  3415.10
                             3439.65  3497.92  3792.09  4330.63  4342.83
                             4444.84  4467.60  4493.12  4935.10  5219.17

 Zero-point correction=                           0.150446 (Hartree/Particle)
 Thermal correction to Energy=                    0.167049
 Thermal correction to Enthalpy=                  0.167993
 Thermal correction to Gibbs Free Energy=         0.103628
 Sum of electronic and zero-point Energies=          -1917.372668
 Sum of electronic and thermal Energies=             -1917.356065
 Sum of electronic and thermal Enthalpies=           -1917.355121
 Sum of electronic and thermal Free Energies=        -1917.419486

                     E (Thermal)             CV                S
                      KCal/Mol        Cal/Mol-Kelvin    Cal/Mol-Kelvin
 Total                  104.825             55.176            135.468
 Electronic               0.000              0.000              0.000
 Translational            0.889              2.981             42.315
 Rotational               0.889              2.981             32.448
 Vibrational            103.047             49.215             60.705
 Vibration     1          0.594              1.984              5.815
 Vibration     2          0.594              1.981              5.212
 Vibration     3          0.595              1.978              4.855
 Vibration     4          0.597              1.971              4.302
 Vibration     5          0.599              1.965              3.976
 Vibration     6          0.601              1.959              3.742
 Vibration     7          0.602              1.956              3.649
 Vibration     8          0.605              1.945              3.365
 Vibration     9          0.611              1.926              2.993
 Vibration    10          0.615              1.912              2.792
 Vibration    11          0.620              1.896              2.595
 Vibration    12          0.635              1.848              2.189
 Vibration    13          0.643              1.824              2.037
 Vibration    14          0.677              1.720              1.566
 Vibration    15          0.682              1.703              1.509
 Vibration    16          0.693              1.673              1.415
 Vibration    17          0.706              1.635              1.310
 Vibration    18          0.762              1.482              0.983
 Vibration    19          0.782              1.427              0.893
 Vibration    20          0.802              1.379              0.821
 Vibration    21          0.806              1.368              0.805
 Vibration    22          0.825              1.322              0.744

                           ! Non-Optimized Parameters !
 Normal termination of Gaussian 16 at Sun May 28 05:12:19 2023.
