 Gaussian 16, Revision A.03,
 Gaussian 16:  ES64L-G16RevA.03 25-Dec-2016

 -----------------------------
 # opt freq b3lyp/6-31g(2df,p)
 -----------------------------

 -------------------
 Title Card Required
 -------------------
 Symbolic Z-matrix:
 Charge =  0 Multiplicity = 1

 SCF Done:  E(RB3LYP) =  -769.939494605     A.U. after   12 cycles
 SCF Done:  E(RB3LYP) =  -769.955343623     A.U. after   12 cycles
 SCF Done:  E(RB3LYP) =  -769.956770165     A.U. after   11 cycles
 SCF Done:  E(RB3LYP) =  -769.967525626     A.U. after   11 cycles
 SCF Done:  E(RB3LYP) =  -769.962954633     A.U. after   12 cycles
 SCF Done:  E(RB3LYP) =  -769.970928956     A.U. after   11 cycles
 SCF Done:  E(RB3LYP) =  -769.971610409     A.U. after   11 cycles
 SCF Done:  E(RB3LYP) =  -769.973746030     A.U. after   11 cycles
 SCF Done:  E(RB3LYP) =  -769.974822950     A.U. after   11 cycles
 SCF Done:  E(RB3LYP) =  -769.975981283     A.U. after   11 cycles
 SCF Done:  E(RB3LYP) =  -769.979884618     A.U. after    9 cycles
 SCF Done:  E(RB3LYP) =  -769.979885422     A.U. after    7 cycles
 SCF Done:  E(RB3LYP) =  -769.979886750     A.U. after    7 cycles
 SCF Done:  E(RB3LYP) =  -769.979887533     A.U. after    7 cycles
 SCF Done:  E(RB3LYP) =  -769.979887783     A.U. after    7 cycles
 SCF Done:  E(RB3LYP) =  -769.979887991     A.U. after    7 cycles
 SCF Done:  E(RB3LYP) =  -769.979888025     A.U. after    6 cycles
 SCF Done:  E(RB3LYP) =  -769.979888041     A.U. after    5 cycles
 SCF Done:  E(RB3LYP) =  -769.979888051     A.U. after    5 cycles
 Optimization completed.
    -- Stationary point found.
 Normal termination of Gaussian 16 at Mon May 22 13:12:28 2023.

 ----------------------------------------------------------------------
 #N Geom=AllCheck Guess=TCheck SCRF=Check GenChk RB3LYP/6-31G(2df,p) Fr
 eq
 ----------------------------------------------------------------------

 Structure from the checkpoint file:  "CONCqCqCrOrCqNrCOCqCrCqCrC.chk"
 -------------------
 Title Card Required
 -------------------
 Charge =  0 Multiplicity = 1

                         Standard orientation:
 ---------------------------------------------------------------------
 Center     Atomic      Atomic             Coordinates (Angstroms)
 Number     Number       Type             X           Y           Z
 ---------------------------------------------------------------------
      1          6           0        5.178245   -1.325476    0.048595
      2          8           0        4.080981   -0.752837    0.743405
      3          7           0        2.867503   -1.068472    0.017064
      4          6           0        1.896200    0.025620    0.209192
      5          6           0        2.397191    1.277289   -0.555666
      6          6           0        1.396568    2.422256   -0.692831
      7          8           0        3.534473    1.844015    0.076753
      8          6           0        0.509468   -0.489546   -0.313964
      9          7           0        0.292244   -1.938254   -0.338336
     10          6           0       -0.628868    0.142472    0.494366
     11          8           0       -1.804602    0.083852   -0.272481
     12          6           0       -3.020964    0.360361    0.418635
     13          6           0       -3.232234    1.871976    0.542506
     14          6           0       -4.130106   -0.371311   -0.360027
     15          6           0       -3.861941   -1.883121   -0.383482
     16          6           0       -5.530646   -0.075617    0.193380
     17          1           0        6.070685   -1.044261    0.614350
     18          1           0        5.245111   -0.944078   -0.976199
     19          1           0        5.102233   -2.420361    0.018229
     20          1           0        2.505207   -1.876943    0.520975
     21          1           0        1.821585    0.286001    1.279290
     22          1           0        2.658807    0.916814   -1.566736
     23          1           0        1.107470    2.802332    0.291815
     24          1           0        0.499234    2.140554   -1.248949
     25          1           0        1.888423    3.239936   -1.226816
     26          1           0        4.049993    1.107145    0.430909
     27          1           0        0.400370   -0.156895   -1.351631
     28          1           0        0.345235   -2.349284    0.588674
     29          1           0        0.959641   -2.407574   -0.939563
     30          1           0       -0.377746    1.174642    0.769688
     31          1           0       -0.748590   -0.418940    1.439002
     32          1           0       -2.962578   -0.077546    1.431181
     33          1           0       -3.371581    2.321079   -0.446414
     34          1           0       -2.365618    2.347675    1.011185
     35          1           0       -4.105230    2.105631    1.157612
     36          1           0       -4.076858    0.003307   -1.391877
     37          1           0       -3.985209   -2.312705    0.619124
     38          1           0       -2.845260   -2.093915   -0.720772
     39          1           0       -4.568164   -2.393106   -1.046854
     40          1           0       -5.601084   -0.344851    1.254662
     41          1           0       -6.281646   -0.664865   -0.342393
     42          1           0       -5.806951    0.977630    0.094762
 ---------------------------------------------------------------------

 SCF Done:  E(RB3LYP) =  -769.979888051     A.U. after    1 cycles

 The electronic state is 1-A.
 Alpha  occ. eigenvalues --  -19.18164 -19.13172 -19.10923 -14.37414 -14.31798
 Alpha  occ. eigenvalues --  -10.23319 -10.22636 -10.22589 -10.22326 -10.21968
 Alpha  occ. eigenvalues --  -10.21385 -10.17871 -10.17024 -10.16911 -10.16619
 Alpha  occ. eigenvalues --  -10.15722  -1.07418  -1.02775  -0.99646  -0.90161
 Alpha  occ. eigenvalues --   -0.84834  -0.80176  -0.76070  -0.73326  -0.71334
 Alpha  occ. eigenvalues --   -0.68421  -0.67132  -0.65413  -0.61843  -0.59494
 Alpha  occ. eigenvalues --   -0.57375  -0.55287  -0.52714  -0.51211  -0.50137
 Alpha  occ. eigenvalues --   -0.49307  -0.47933  -0.45981  -0.45450  -0.44838
 Alpha  occ. eigenvalues --   -0.43665  -0.43465  -0.42856  -0.41978  -0.40276
 Alpha  occ. eigenvalues --   -0.39633  -0.38685  -0.37900  -0.37785  -0.37495
 Alpha  occ. eigenvalues --   -0.37223  -0.36614  -0.36182  -0.35402  -0.34549
 Alpha  occ. eigenvalues --   -0.32790  -0.32502  -0.32072  -0.31346  -0.29906
 Alpha  occ. eigenvalues --   -0.28661  -0.25757  -0.24748  -0.24274  -0.23571
 Alpha virt. eigenvalues --    0.05928   0.07139   0.08456   0.10095   0.10424
 Alpha virt. eigenvalues --    0.11027   0.11667   0.12252   0.13309   0.13589
 Alpha virt. eigenvalues --    0.14383   0.14757   0.15113   0.15269   0.15794

 Mulliken charges:
               1
     1  C   -0.218210
     2  O   -0.263508
     3  N   -0.224529
     4  C   -0.043868
     5  C    0.185030
     6  C   -0.404031
     7  O   -0.460598
     8  C   -0.009130
     9  N   -0.516682
    10  C   -0.054224
    11  O   -0.256802
    12  C    0.153973
    13  C   -0.412601
    14  C    0.038867
    15  C   -0.405472
    16  C   -0.401331
    17  H    0.130453
    18  H    0.127141
    19  H    0.113879
    20  H    0.220576
    21  H    0.070710
    22  H    0.062338
    23  H    0.119576
    24  H    0.124705
    25  H    0.123690
    26  H    0.288606
    27  H    0.104315
    28  H    0.222225
    29  H    0.239846
    30  H    0.097873
    31  H    0.075560
    32  H    0.056858
    33  H    0.120488
    34  H    0.115218
    35  H    0.117792
    36  H    0.078051
    37  H    0.097682
    38  H    0.148879
    39  H    0.101633
    40  H    0.109072
    41  H    0.112167
    42  H    0.113785
 Sum of Mulliken charges =  -0.00000

 Dipole moment (field-independent basis, Debye):
    X=              0.3225    Y=             -2.1454    Z=              1.0385  Tot=              2.4053
 Quadrupole moment (field-independent basis, Debye-Ang):
   XX=            -97.3574   YY=           -101.8928   ZZ=           -100.3421
   XY=            -13.1462   XZ=             -2.4039   YZ=             -2.3619

  Exact polarizability: 189.967  -3.158 148.232   1.018  -0.288 119.976
 Approx polarizability: 218.961   1.102 204.457   3.913   0.106 198.229

                      1                      2                      3
                      A                      A                      A
 Frequencies --     21.2718                22.5375                36.2987
 Red. masses --      3.8511                 3.2488                 3.7517
 Frc consts  --      0.0010                 0.0010                 0.0029
 IR Inten    --      0.2722                 0.4897                 0.1976

                      4                      5                      6
                      A                      A                      A
 Frequencies --     50.7830                63.8066                71.0464
 Red. masses --      2.8857                 3.5049                 2.8788
 Frc consts  --      0.0044                 0.0084                 0.0086
 IR Inten    --      1.5945                 2.1029                 0.2657

                      7                      8                      9
                      A                      A                      A
 Frequencies --     89.5197               108.9474               146.5557
 Red. masses --      3.7322                 3.1452                 3.0445
 Frc consts  --      0.0176                 0.0220                 0.0385
 IR Inten    --      1.3042                 0.9648                 1.7143

                     10                     11                     12
                      A                      A                      A
 Frequencies --    180.1584               189.3939               209.3055
 Red. masses --      2.2307                 1.6923                 1.0612
 Frc consts  --      0.0427                 0.0358                 0.0274
 IR Inten    --      1.0304                 1.0412                 0.1577

                     13                     14                     15
                      A                      A                      A
 Frequencies --    222.0109               239.2645               244.0031
 Red. masses --      1.6710                 2.8313                 1.1743
 Frc consts  --      0.0485                 0.0955                 0.0412
 IR Inten    --      0.1993                 1.3074                 1.6976

                     16                     17                     18
                      A                      A                      A
 Frequencies --    265.8956               281.2956               294.7482
 Red. masses --      2.0954                 1.9046                 1.3931
 Frc consts  --      0.0873                 0.0888                 0.0713
 IR Inten    --      5.4941                 7.0713                 2.0646

                     19                     20                     21
                      A                      A                      A
 Frequencies --    307.2570               323.2024               349.0270
 Red. masses --      2.1634                 2.7375                 2.7598
 Frc consts  --      0.1203                 0.1685                 0.1981
 IR Inten    --      0.2748                 1.7106                 1.4414

                     22                     23                     24
                      A                      A                      A
 Frequencies --    358.3299               376.0993               383.2013
 Red. masses --      2.2470                 2.3940                 2.1152
 Frc consts  --      0.1700                 0.1995                 0.1830
 IR Inten    --      1.8488                 9.1613                22.4681

                     25                     26                     27
                      A                      A                      A
 Frequencies --    390.2977               403.4929               444.8888
 Red. masses --      2.4091                 1.9596                 2.7031
 Frc consts  --      0.2162                 0.1880                 0.3152
 IR Inten    --      3.6708                22.6085                 0.9730

                     28                     29                     30
                      A                      A                      A
 Frequencies --    451.0742               482.2566               514.1575
 Red. masses --      2.9927                 3.0206                 2.4860
 Frc consts  --      0.3588                 0.4139                 0.3872
 IR Inten    --      2.4097                 3.2725                 1.1108

                     31                     32                     33
                      A                      A                      A
 Frequencies --    521.9242               550.3800               578.2921
 Red. masses --      2.6916                 1.1850                 2.6380
 Frc consts  --      0.4320                 0.2115                 0.5198
 IR Inten    --      0.0215                61.3370                 5.2361

                     34                     35                     36
                      A                      A                      A
 Frequencies --    626.6139               790.6551               803.5071
 Red. masses --      2.6986                 1.5631                 1.9793
 Frc consts  --      0.6243                 0.5757                 0.7529
 IR Inten    --     10.0033               210.9821                20.5322

                     37                     38                     39
                      A                      A                      A
 Frequencies --    848.9627               877.6873               885.1279
 Red. masses --      1.9709                 3.8519                 2.4937
 Frc consts  --      0.8369                 1.7483                 1.1511
 IR Inten    --     17.5244                 9.3885                 0.6997

                     40                     41                     42
                      A                      A                      A
 Frequencies --    925.5633               932.1463               938.8495
 Red. masses --      2.0081                 1.2694                 1.8593
 Frc consts  --      1.0135                 0.6498                 0.9656
 IR Inten    --      4.5013                 5.4990                 8.4707

                     43                     44                     45
                      A                      A                      A
 Frequencies --    944.9176               964.9326               987.5134
 Red. masses --      2.0211                 1.4516                 1.5013
 Frc consts  --      1.0632                 0.7963                 0.8626
 IR Inten    --     13.4224                 2.1398                 9.1781

                     46                     47                     48
                      A                      A                      A
 Frequencies --    999.0465              1008.8307              1040.1323
 Red. masses --      1.7094                 2.0773                 2.2303
 Frc consts  --      1.0052                 1.2456                 1.4216
 IR Inten    --     39.6501                57.2695                21.9378

                     49                     50                     51
                      A                      A                      A
 Frequencies --   1059.0042              1063.3423              1078.3939
 Red. masses --      2.8280                 2.4965                 4.0780
 Frc consts  --      1.8686                 1.6632                 2.7941
 IR Inten    --      8.3745                36.4607                41.7489

                     52                     53                     54
                      A                      A                      A
 Frequencies --   1102.3856              1115.8709              1132.6742
 Red. masses --      3.1091                 2.1828                 2.3178
 Frc consts  --      2.2261                 1.6014                 1.7520
 IR Inten    --     38.8734                 7.4152                34.0468

                     55                     56                     57
                      A                      A                      A
 Frequencies --   1150.3589              1154.9915              1162.0434
 Red. masses --      2.5256                 3.9533                 2.5081
 Frc consts  --      1.9692                 3.1072                 1.9955
 IR Inten    --     10.8174               233.0129                 7.1256

                     58                     59                     60
                      A                      A                      A
 Frequencies --   1175.8690              1191.3994              1191.8646
 Red. masses --      1.4884                 1.8331                 1.4910
 Frc consts  --      1.2125                 1.5330                 1.2479
 IR Inten    --      9.9717                12.5884                12.9945

                     61                     62                     63
                      A                      A                      A
 Frequencies --   1203.5008              1215.7665              1224.4630
 Red. masses --      1.5644                 1.6600                 1.7194
 Frc consts  --      1.3351                 1.4456                 1.5189
 IR Inten    --      5.2690                 0.8857                 5.6108

                     64                     65                     66
                      A                      A                      A
 Frequencies --   1248.7622              1303.3841              1311.8139
 Red. masses --      1.4017                 1.2112                 1.3623
 Frc consts  --      1.2879                 1.2123                 1.3813
 IR Inten    --      4.7724                 6.4819                21.5783

                     67                     68                     69
                      A                      A                      A
 Frequencies --   1319.1901              1337.1757              1343.6316
 Red. masses --      1.2117                 1.2556                 1.3487
 Frc consts  --      1.2424                 1.3228                 1.4346
 IR Inten    --     18.5353                13.0420                 4.3758

                     70                     71                     72
                      A                      A                      A
 Frequencies --   1355.7173              1365.6805              1384.7447
 Red. masses --      1.2670                 1.2548                 1.4486
 Frc consts  --      1.3721                 1.3789                 1.6365
 IR Inten    --     22.4302                18.0535                 2.3142

                     73                     74                     75
                      A                      A                      A
 Frequencies --   1388.4599              1398.1105              1404.9986
 Red. masses --      1.2390                 1.2569                 1.2640
 Frc consts  --      1.4073                 1.4475                 1.4701
 IR Inten    --     12.8947                 1.0371                21.8857

                     76                     77                     78
                      A                      A                      A
 Frequencies --   1405.6968              1417.9901              1421.5817
 Red. masses --      1.2603                 1.2260                 1.2249
 Frc consts  --      1.4673                 1.4524                 1.4584
 IR Inten    --     14.4271                 4.8257                 4.1750

                     79                     80                     81
                      A                      A                      A
 Frequencies --   1439.8712              1450.8724              1461.8974
 Red. masses --      1.4057                 1.3242                 1.1704
 Frc consts  --      1.7171                 1.6424                 1.4737
 IR Inten    --      1.7901                57.7926                14.1298

                     82                     83                     84
                      A                      A                      A
 Frequencies --   1468.3896              1485.6905              1486.9883
 Red. masses --      1.0989                 1.1002                 1.0841
 Frc consts  --      1.3961                 1.4308                 1.4123
 IR Inten    --      4.6014                18.6356                 4.4228

                     85                     86                     87
                      A                      A                      A
 Frequencies --   1488.9755              1490.1384              1493.3368
 Red. masses --      1.0670                 1.0478                 1.0581
 Frc consts  --      1.3937                 1.3708                 1.3902
 IR Inten    --      2.7981                 5.6983                 1.2861

                     88                     89                     90
                      A                      A                      A
 Frequencies --   1500.9681              1504.3277              1507.0666
 Red. masses --      1.0495                 1.0546                 1.0478
 Frc consts  --      1.3931                 1.4061                 1.4022
 IR Inten    --      7.0190                 1.6949                 1.8081

                     91                     92                     93
                      A                      A                      A
 Frequencies --   1510.2727              1518.7109              1521.0416
 Red. masses --      1.0646                 1.0827                 1.0556
 Frc consts  --      1.4308                 1.4714                 1.4389
 IR Inten    --     20.5557                 7.3739                13.2998

                     94                     95                     96
                      A                      A                      A
 Frequencies --   1652.9205              2935.5510              2936.9957
 Red. masses --      1.0971                 1.0770                 1.0777
 Frc consts  --      1.7661                 5.4682                 5.4769
 IR Inten    --     18.7745                18.4192                 9.3297

                     97                     98                     99
                      A                      A                      A
 Frequencies --   2944.2786              2955.1946              3008.6591
 Red. masses --      1.0774                 1.0835                 1.0336
 Frc consts  --      5.5030                 5.5753                 5.5125
 IR Inten    --     51.9194                72.4075                64.0312

                    100                    101                    102
                      A                      A                      A
 Frequencies --   3010.4051              3021.7791              3028.4356
 Red. masses --      1.0806                 1.0410                 1.0404
 Frc consts  --      5.7696                 5.6006                 5.6218
 IR Inten    --      9.2074                20.9477                48.9610

                    103                    104                    105
                      A                      A                      A
 Frequencies --   3034.0732              3040.6856              3044.8885
 Red. masses --      1.0728                 1.0408                 1.0434
 Frc consts  --      5.8184                 5.6697                 5.6995
 IR Inten    --     20.0041                16.9374                26.7979

                    106                    107                    108
                      A                      A                      A
 Frequencies --   3057.9651              3076.5473              3083.9502
 Red. masses --      1.0838                 1.1016                 1.0975
 Frc consts  --      5.9711                 6.1434                 6.1499
 IR Inten    --     20.6329                35.2295                11.6436

                    109                    110                    111
                      A                      A                      A
 Frequencies --   3092.3336              3106.8192              3109.2003
 Red. masses --      1.0977                 1.1012                 1.1010
 Frc consts  --      6.1846                 6.2623                 6.2712
 IR Inten    --     56.3001                43.3278                24.8740

                    112                    113                    114
                      A                      A                      A
 Frequencies --   3113.6343              3119.8518              3121.2812
 Red. masses --      1.1007                 1.0999                 1.1029
 Frc consts  --      6.2871                 6.3076                 6.3307
 IR Inten    --     27.3510                24.6970                19.0412

                    115                    116                    117
                      A                      A                      A
 Frequencies --   3127.5088              3133.8601              3450.9743
 Red. masses --      1.1021                 1.0992                 1.0747
 Frc consts  --      6.3512                 6.3601                 7.5410
 IR Inten    --     19.9298                 7.2265                 1.3344

                    118                    119                    120
                      A                      A                      A
 Frequencies --   3496.0786              3595.4037              3732.1584
 Red. masses --      1.0487                 1.0934                 1.0652
 Frc consts  --      7.5522                 8.3278                 8.7419
 IR Inten    --      1.1509                 1.9339               190.2718

 - Thermochemistry -
 -------------------
 Temperature   298.150 Kelvin.  Pressure   1.00000 Atm.
 Atom     1 has atomic number  6 and mass  12.00000

 Molecular mass:   234.19434 amu.
 Principal axes and moments of inertia in atomic units:
                           1         2         3
     Eigenvalues --  1703.057968880.07169**********
           X            0.99998  -0.00452  -0.00444
           Y            0.00452   0.99999   0.00109
           Z            0.00443  -0.00111   0.99999
 This molecule is an asymmetric top.
 Rotational symmetry number  1.
 Warning -- assumption of classical behavior for rotation
           may cause significant error
 Rotational temperatures (Kelvin)      0.05086     0.00975     0.00853
 Rotational constants (GHZ):           1.05971     0.20323     0.17778
 Zero-point vibrational energy     991309.8 (Joules/Mol)
                                  236.92873 (Kcal/Mol)
 Warning -- explicit consideration of  33 degrees of freedom as
           vibrations may cause significant error
 Vibrational temperatures:     30.61    32.43    52.23    73.07    91.80
          (Kelvin)            102.22   128.80   156.75   210.86   259.21
                              272.50   301.14   319.42   344.25   351.07
                              382.56   404.72   424.08   442.07   465.02
                              502.17   515.56   541.12   551.34   561.55
                              580.54   640.10   649.00   693.86   739.76
                              750.93   791.87   832.03   901.56  1137.58
                             1156.07  1221.47  1262.80  1273.50  1331.68
                             1341.15  1350.80  1359.53  1388.32  1420.81
                             1437.41  1451.48  1496.52  1523.67  1529.91
                             1551.57  1586.09  1605.49  1629.67  1655.11
                             1661.78  1671.92  1691.81  1714.16  1714.83
                             1731.57  1749.22  1761.73  1796.69  1875.28
                             1887.41  1898.02  1923.90  1933.19  1950.57
                             1964.91  1992.34  1997.68  2011.57  2021.48
                             2022.48  2040.17  2045.34  2071.65  2087.48
                             2103.34  2112.69  2137.58  2139.44  2142.30
                             2143.98  2148.58  2159.56  2164.39  2168.33
                             2172.95  2185.09  2188.44  2378.18  4223.60
                             4225.68  4236.16  4251.87  4328.79  4331.30
                             4347.67  4357.24  4365.35  4374.87  4380.92
                             4399.73  4426.47  4437.12  4449.18  4470.02
                             4473.45  4479.83  4488.77  4490.83  4499.79
                             4508.93  4965.18  5030.08  5172.98  5369.74

 Zero-point correction=                           0.377570 (Hartree/Particle)
 Thermal correction to Energy=                    0.397929
 Thermal correction to Enthalpy=                  0.398873
 Thermal correction to Gibbs Free Energy=         0.327230
 Sum of electronic and zero-point Energies=           -769.602318
 Sum of electronic and thermal Energies=              -769.581959
 Sum of electronic and thermal Enthalpies=            -769.581015
 Sum of electronic and thermal Free Energies=         -769.652658

                     E (Thermal)             CV                S
                      KCal/Mol        Cal/Mol-Kelvin    Cal/Mol-Kelvin
 Total                  249.704             75.070            150.787
 Electronic               0.000              0.000              0.000
 Translational            0.889              2.981             42.255
 Rotational               0.889              2.981             33.395
 Vibrational            247.927             69.108             75.137
 Vibration     1          0.593              1.985              6.512
 Vibration     2          0.593              1.985              6.397
 Vibration     3          0.594              1.982              5.451
 Vibration     4          0.595              1.977              4.787
 Vibration     5          0.597              1.972              4.336
 Vibration     6          0.598              1.968              4.124
 Vibration     7          0.602              1.957              3.671
 Vibration     8          0.606              1.942              3.288
 Vibration     9          0.617              1.906              2.716
 Vibration    10          0.629              1.867              2.327
 Vibration    11          0.633              1.854              2.234
 Vibration    12          0.642              1.827              2.050
 Vibration    13          0.648              1.808              1.943
 Vibration    14          0.657              1.780              1.808
 Vibration    15          0.659              1.773              1.774
 Vibration    16          0.672              1.736              1.623
 Vibration    17          0.681              1.708              1.526
 Vibration    18          0.689              1.684              1.447
 Vibration    19          0.697              1.660              1.377
 Vibration    20          0.708              1.629              1.294
 Vibration    21          0.726              1.577              1.171
 Vibration    22          0.733              1.558              1.129
 Vibration    23          0.747              1.521              1.055
 Vibration    24          0.752              1.506              1.027
 Vibration    25          0.758              1.491              0.999
 Vibration    26          0.769              1.463              0.950
 Vibration    27          0.804              1.372              0.811
 Vibration    28          0.810              1.359              0.793
 Vibration    29          0.838              1.289              0.704
 Vibration    30          0.869              1.219              0.624
 Vibration    31          0.877              1.201              0.606
 Vibration    32          0.906              1.139              0.543
 Vibration    33          0.935              1.078              0.489

                           ! Non-Optimized Parameters !
 Normal termination of Gaussian 16 at Mon May 22 17:28:06 2023.
