 Gaussian 16, Revision A.03,
 Gaussian 16:  ES64L-G16RevA.03 25-Dec-2016

 -----------------------------
 # opt freq b3lyp/6-31g(2df,p)
 -----------------------------

 -------------------
 Title Card Required
 -------------------
 Symbolic Z-matrix:
 Charge =  0 Multiplicity = 1

 SCF Done:  E(RB3LYP) =  -772.452477394     A.U. after   13 cycles
 SCF Done:  E(RB3LYP) =  -772.460488701     A.U. after   11 cycles
 SCF Done:  E(RB3LYP) =  -772.462253303     A.U. after   11 cycles
 SCF Done:  E(RB3LYP) =  -772.462878286     A.U. after   11 cycles
 SCF Done:  E(RB3LYP) =  -772.464027175     A.U. after   12 cycles
 SCF Done:  E(RB3LYP) =  -772.464803039     A.U. after   11 cycles
 SCF Done:  E(RB3LYP) =  -772.465825336     A.U. after   11 cycles
 SCF Done:  E(RB3LYP) =  -772.467427415     A.U. after   11 cycles
 SCF Done:  E(RB3LYP) =  -772.468591088     A.U. after   11 cycles
 SCF Done:  E(RB3LYP) =  -772.469197093     A.U. after   14 cycles
 SCF Done:  E(RB3LYP) =  -772.484593134     A.U. after    9 cycles
 SCF Done:  E(RB3LYP) =  -772.484594802     A.U. after    9 cycles
 SCF Done:  E(RB3LYP) =  -772.484595353     A.U. after    8 cycles
 SCF Done:  E(RB3LYP) =  -772.484595563     A.U. after    8 cycles
 SCF Done:  E(RB3LYP) =  -772.484595617     A.U. after    8 cycles
 SCF Done:  E(RB3LYP) =  -772.484595614     A.U. after    7 cycles
 SCF Done:  E(RB3LYP) =  -772.484595613     A.U. after    6 cycles
 SCF Done:  E(RB3LYP) =  -772.484595598     A.U. after    7 cycles
 SCF Done:  E(RB3LYP) =  -772.484595607     A.U. after    6 cycles
 Optimization completed.
    -- Stationary point found.
 Normal termination of Gaussian 16 at Mon May 22 12:06:26 2023.

 ----------------------------------------------------------------------
 #N Geom=AllCheck Guess=TCheck SCRF=Check GenChk RB3LYP/6-31G(2df,p) Fr
 eq
 ----------------------------------------------------------------------

 Structure from the checkpoint file:  "COOCOOCCC1CCCCCCC1.chk"
 -------------------
 Title Card Required
 -------------------
 Charge =  0 Multiplicity = 1

                         Standard orientation:
 ---------------------------------------------------------------------
 Center     Atomic      Atomic             Coordinates (Angstroms)
 Number     Number       Type             X           Y           Z
 ---------------------------------------------------------------------
      1          6           0        3.072634   -2.354467   -0.283281
      2          8           0        4.216550   -1.527695   -0.317509
      3          8           0        3.978096   -0.432007    0.610602
      4          6           0        4.143963    0.754560   -0.115365
      5          8           0        3.051541    1.124818   -0.906480
      6          8           0        2.081366    1.750682   -0.021084
      7          6           0        0.869958    1.011649   -0.114000
      8          6           0       -0.146718    1.791068    0.718812
      9          6           0       -1.581656    1.210467    0.744118
     10          6           0       -2.239736    1.290987   -0.646600
     11          6           0       -3.771986    1.193284   -0.690847
     12          6           0       -4.419962   -0.117597   -0.207374
     13          6           0       -3.798367   -1.415134   -0.771652
     14          6           0       -2.812984   -2.145882    0.157855
     15          6           0       -1.494503   -1.443019    0.529715
     16          6           0       -1.628545   -0.187042    1.426553
     17          1           0        3.334336   -3.210420   -0.913618
     18          1           0        2.191189   -1.849801   -0.694471
     19          1           0        2.862460   -2.705232    0.734045
     20          1           0        4.976933    0.654936   -0.818856
     21          1           0        4.341011    1.517508    0.644589
     22          1           0        1.022352   -0.001124    0.276320
     23          1           0        0.564922    0.942933   -1.165460
     24          1           0       -0.180461    2.817522    0.335200
     25          1           0        0.231367    1.852709    1.746150
     26          1           0       -2.142503    1.893271    1.397520
     27          1           0       -1.810270    0.534248   -1.312450
     28          1           0       -1.964190    2.255545   -1.091889
     29          1           0       -4.076296    1.357542   -1.733060
     30          1           0       -4.200492    2.027945   -0.119945
     31          1           0       -5.477850   -0.074804   -0.491472
     32          1           0       -4.419201   -0.161370    0.887426
     33          1           0       -3.316778   -1.209422   -1.737013
     34          1           0       -4.605574   -2.122422   -0.995248
     35          1           0       -2.559529   -3.105708   -0.310414
     36          1           0       -3.340843   -2.398810    1.088548
     37          1           0       -0.932870   -1.214153   -0.383552
     38          1           0       -0.884855   -2.179567    1.066616
     39          1           0       -0.830006   -0.205209    2.177528
     40          1           0       -2.555859   -0.275748    2.001673
 ---------------------------------------------------------------------

 SCF Done:  E(RB3LYP) =  -772.484595607     A.U. after    1 cycles

 The electronic state is 1-A.
 Alpha  occ. eigenvalues --  -19.19587 -19.19398 -19.19282 -19.18775 -10.27737
 Alpha  occ. eigenvalues --  -10.22985 -10.22606 -10.18903 -10.18237 -10.17977
 Alpha  occ. eigenvalues --  -10.17846 -10.17808 -10.17778 -10.17721 -10.17656
 Alpha  occ. eigenvalues --  -10.17608  -1.13303  -1.10506  -0.95037  -0.90830
 Alpha  occ. eigenvalues --   -0.82641  -0.78661  -0.76929  -0.72748  -0.68518
 Alpha  occ. eigenvalues --   -0.67824  -0.66978  -0.63787  -0.61398  -0.58219
 Alpha  occ. eigenvalues --   -0.56723  -0.54016  -0.53070  -0.50795  -0.50330
 Alpha  occ. eigenvalues --   -0.48105  -0.47427  -0.46222  -0.45865  -0.44637
 Alpha  occ. eigenvalues --   -0.43891  -0.42745  -0.42545  -0.41524  -0.41055
 Alpha  occ. eigenvalues --   -0.40555  -0.40148  -0.38851  -0.37145  -0.36402
 Alpha  occ. eigenvalues --   -0.36000  -0.34719  -0.33803  -0.33095  -0.32748
 Alpha  occ. eigenvalues --   -0.32585  -0.32064  -0.31191  -0.30353  -0.30013
 Alpha  occ. eigenvalues --   -0.29742  -0.29014  -0.26732  -0.24334
 Alpha virt. eigenvalues --    0.02447   0.02800   0.06821   0.08165   0.09514
 Alpha virt. eigenvalues --    0.10124   0.11135   0.11402   0.12499   0.13779
 Alpha virt. eigenvalues --    0.13960   0.14082   0.14491   0.15020   0.15934

 Mulliken charges:
               1
     1  C   -0.207307
     2  O   -0.173453
     3  O   -0.173238
     4  C    0.087975
     5  O   -0.172310
     6  O   -0.197135
     7  C   -0.022305
     8  C   -0.238930
     9  C    0.015309
    10  C   -0.186920
    11  C   -0.205484
    12  C   -0.180987
    13  C   -0.182760
    14  C   -0.190703
    15  C   -0.184266
    16  C   -0.209089
    17  H    0.133680
    18  H    0.125631
    19  H    0.122941
    20  H    0.123025
    21  H    0.122426
    22  H    0.107277
    23  H    0.102505
    24  H    0.106199
    25  H    0.104188
    26  H    0.072676
    27  H    0.097280
    28  H    0.091044
    29  H    0.092712
    30  H    0.090431
    31  H    0.090546
    32  H    0.095262
    33  H    0.092263
    34  H    0.092572
    35  H    0.088796
    36  H    0.093119
    37  H    0.096390
    38  H    0.091873
    39  H    0.091769
    40  H    0.097000
 Sum of Mulliken charges =  -0.00000

 Dipole moment (field-independent basis, Debye):
    X=             -1.8725    Y=             -0.8690    Z=              0.1203  Tot=              2.0678
 Quadrupole moment (field-independent basis, Debye-Ang):
   XX=           -102.6971   YY=            -97.2827   ZZ=            -99.9579
   XY=             -0.2307   XZ=             -0.6083   YZ=              2.0835

  Exact polarizability: 172.933   1.169 151.859   1.259   3.176 122.352
 Approx polarizability: 212.007  -2.895 210.783  -5.611   8.276 200.011

                      1                      2                      3
                      A                      A                      A
 Frequencies --      9.3206                16.7104                29.6291
 Red. masses --      2.7976                 5.2442                 3.9242
 Frc consts  --      0.0001                 0.0009                 0.0020
 IR Inten    --      1.6096                 2.0557                 0.1263

                      4                      5                      6
                      A                      A                      A
 Frequencies --     50.3414                63.4739                77.5255
 Red. masses --      3.3561                 3.5552                 4.6321
 Frc consts  --      0.0050                 0.0084                 0.0164
 IR Inten    --      0.5252                 0.1112                 3.5237

                      7                      8                      9
                      A                      A                      A
 Frequencies --    117.2966               121.7507               161.1656
 Red. masses --      2.2098                 3.2925                 3.3192
 Frc consts  --      0.0179                 0.0288                 0.0508
 IR Inten    --      1.8544                 0.3284                 3.3870

                     10                     11                     12
                      A                      A                      A
 Frequencies --    187.0595               192.0173               216.5246
 Red. masses --      2.1667                 3.7606                 2.5555
 Frc consts  --      0.0447                 0.0817                 0.0706
 IR Inten    --      0.1070                 0.9964                 0.6492

                     13                     14                     15
                      A                      A                      A
 Frequencies --    238.2074               245.6149               281.8878
 Red. masses --      1.3858                 2.4826                 2.2844
 Frc consts  --      0.0463                 0.0882                 0.1069
 IR Inten    --      4.7229                 0.0553                 0.1585

                     16                     17                     18
                      A                      A                      A
 Frequencies --    284.5458               331.6344               348.0551
 Red. masses --      3.3114                 3.8653                 2.0900
 Frc consts  --      0.1580                 0.2505                 0.1492
 IR Inten    --      0.7617                 0.5339                 0.1867

                     19                     20                     21
                      A                      A                      A
 Frequencies --    374.5098               413.3662               430.3029
 Red. masses --      1.9799                 3.2565                 2.9823
 Frc consts  --      0.1636                 0.3279                 0.3253
 IR Inten    --      0.2883                 6.9975                 2.3811

                     22                     23                     24
                      A                      A                      A
 Frequencies --    447.8945               478.6162               512.6632
 Red. masses --      2.9593                 1.5796                 2.2343
 Frc consts  --      0.3498                 0.2132                 0.3460
 IR Inten    --      1.8143                 0.5182                11.6911

                     25                     26                     27
                      A                      A                      A
 Frequencies --    516.2259               609.8034               631.6964
 Red. masses --      1.9928                 3.0104                 6.3672
 Frc consts  --      0.3129                 0.6596                 1.4970
 IR Inten    --      0.4898                 1.0822                 8.6459

                     28                     29                     30
                      A                      A                      A
 Frequencies --    730.2546               760.9160               776.7231
 Red. masses --      2.4279                 1.6478                 2.1676
 Frc consts  --      0.7628                 0.5621                 0.7705
 IR Inten    --      0.6570                 1.7001                 0.9978

                     31                     32                     33
                      A                      A                      A
 Frequencies --    791.0068               823.2342               836.3586
 Red. masses --      1.5326                 1.5756                 4.3540
 Frc consts  --      0.5650                 0.6291                 1.7944
 IR Inten    --      0.1388                 1.0201                 3.3728

                     34                     35                     36
                      A                      A                      A
 Frequencies --    850.7626               879.2716               883.2245
 Red. masses --      1.8662                 3.6165                 1.9138
 Frc consts  --      0.7958                 1.6474                 0.8796
 IR Inten    --      3.1835                 1.5068                 0.7939

                     37                     38                     39
                      A                      A                      A
 Frequencies --    919.9380               944.7969               960.5150
 Red. masses --      2.3242                 1.9770                 1.8747
 Frc consts  --      1.1589                 1.0398                 1.0191
 IR Inten    --      5.6015                 0.8901                 0.3895

                     40                     41                     42
                      A                      A                      A
 Frequencies --    991.2879              1002.4553              1021.7079
 Red. masses --      2.2264                 1.9820                 7.1653
 Frc consts  --      1.2890                 1.1735                 4.4070
 IR Inten    --      1.7459                 4.8829               161.2047

                     43                     44                     45
                      A                      A                      A
 Frequencies --   1033.5436              1037.6926              1053.6171
 Red. masses --      2.9620                 6.5812                 5.1904
 Frc consts  --      1.8642                 4.1754                 3.3948
 IR Inten    --      4.4007               106.9724                 4.8997

                     46                     47                     48
                      A                      A                      A
 Frequencies --   1060.2609              1064.8826              1090.6814
 Red. masses --      2.5061                 2.1585                 2.3351
 Frc consts  --      1.6598                 1.4421                 1.6367
 IR Inten    --     16.1880                 4.7988                 1.3710

                     49                     50                     51
                      A                      A                      A
 Frequencies --   1107.2370              1118.2012              1130.0949
 Red. masses --      1.8451                 2.3115                 1.7887
 Frc consts  --      1.3327                 1.7029                 1.3459
 IR Inten    --      2.2699                 2.8900                 2.0233

                     52                     53                     54
                      A                      A                      A
 Frequencies --   1138.6223              1154.3341              1171.1766
 Red. masses --      1.7327                 2.1214                 1.5079
 Frc consts  --      1.3235                 1.6654                 1.2186
 IR Inten    --      5.5808                16.1885                 1.3509

                     55                     56                     57
                      A                      A                      A
 Frequencies --   1176.0201              1203.4153              1225.0612
 Red. masses --      1.3278                 1.2175                 1.7088
 Frc consts  --      1.0820                 1.0388                 1.5110
 IR Inten    --      0.4641                 0.3699                 5.9681

                     58                     59                     60
                      A                      A                      A
 Frequencies --   1236.1144              1241.6692              1261.9237
 Red. masses --      1.3351                 1.1960                 1.1973
 Frc consts  --      1.2019                 1.0864                 1.1234
 IR Inten    --      0.6633                 0.5453                 0.1863

                     61                     62                     63
                      A                      A                      A
 Frequencies --   1287.8416              1294.4246              1301.3388
 Red. masses --      1.1967                 1.2576                 1.2636
 Frc consts  --      1.1694                 1.2415                 1.2608
 IR Inten    --      0.4346                 3.4461                 3.8785

                     64                     65                     66
                      A                      A                      A
 Frequencies --   1307.9901              1324.4450              1332.1112
 Red. masses --      1.1242                 1.1125                 1.2172
 Frc consts  --      1.1332                 1.1498                 1.2726
 IR Inten    --      0.9707                 0.9486                 1.8134

                     67                     68                     69
                      A                      A                      A
 Frequencies --   1348.5986              1362.3894              1366.5974
 Red. masses --      1.2876                 1.2740                 1.3696
 Frc consts  --      1.3797                 1.3932                 1.5071
 IR Inten    --      3.9219                 5.6002                 2.3377

                     70                     71                     72
                      A                      A                      A
 Frequencies --   1381.0120              1384.8419              1386.0022
 Red. masses --      1.3340                 1.3677                 1.3774
 Frc consts  --      1.4990                 1.5454                 1.5590
 IR Inten    --      4.6170                 1.3649                 0.8073

                     73                     74                     75
                      A                      A                      A
 Frequencies --   1393.9095              1399.6857              1402.4337
 Red. masses --      1.3919                 1.2085                 1.3246
 Frc consts  --      1.5935                 1.3950                 1.5350
 IR Inten    --      2.9656                37.3827                13.6748

                     76                     77                     78
                      A                      A                      A
 Frequencies --   1411.2282              1418.0893              1437.2382
 Red. masses --      1.4073                 1.4287                 1.0907
 Frc consts  --      1.6514                 1.6928                 1.3275
 IR Inten    --      2.0838                 0.2513                 1.0377

                     79                     80                     81
                      A                      A                      A
 Frequencies --   1449.4589              1462.8221              1478.4345
 Red. masses --      1.1382                 1.0574                 1.0787
 Frc consts  --      1.4089                 1.3331                 1.3892
 IR Inten    --      3.6890                 3.4223                 0.4134

                     82                     83                     84
                      A                      A                      A
 Frequencies --   1483.5061              1485.4226              1489.3486
 Red. masses --      1.0834                 1.0923                 1.0882
 Frc consts  --      1.4048                 1.4200                 1.4221
 IR Inten    --      0.5702                 0.5791                 5.3925

                     85                     86                     87
                      A                      A                      A
 Frequencies --   1490.1630              1497.2180              1508.3641
 Red. masses --      1.0933                 1.0882                 1.0819
 Frc consts  --      1.4305                 1.4372                 1.4502
 IR Inten    --      4.0133                 8.8546                 5.1370

                     88                     89                     90
                      A                      A                      A
 Frequencies --   1511.3045              1514.3116              1529.2844
 Red. masses --      1.0583                 1.0793                 1.0866
 Frc consts  --      1.4242                 1.4582                 1.4973
 IR Inten    --      8.7187                13.9295                 4.8966

                     91                     92                     93
                      A                      A                      A
 Frequencies --   2996.2597              3001.5493              3006.0333
 Red. masses --      1.0812                 1.0635                 1.0616
 Frc consts  --      5.7189                 5.6451                 5.6519
 IR Inten    --     14.1381                22.3297                21.4324

                     94                     95                     96
                      A                      A                      A
 Frequencies --   3013.5200              3014.2876              3018.8453
 Red. masses --      1.0300                 1.0654                 1.0558
 Frc consts  --      5.5112                 5.7031                 5.6692
 IR Inten    --     22.4419                11.7936                42.0424

                     97                     98                     99
                      A                      A                      A
 Frequencies --   3020.3065              3023.4570              3029.2671
 Red. masses --      1.0647                 1.0660                 1.0655
 Frc consts  --      5.7226                 5.7412                 5.7607
 IR Inten    --      4.6241                16.6713                25.2743

                    100                    101                    102
                      A                      A                      A
 Frequencies --   3031.3725              3035.6807              3038.1542
 Red. masses --      1.0635                 1.0743                 1.0939
 Frc consts  --      5.7577                 5.8329                 5.9488
 IR Inten    --      8.3822                76.3275                12.3662

                    103                    104                    105
                      A                      A                      A
 Frequencies --   3046.1459              3046.3413              3054.7085
 Red. masses --      1.0860                 1.0541                 1.1022
 Frc consts  --      5.9370                 5.7638                 6.0598
 IR Inten    --     25.9445                32.0076                35.9225

                    106                    107                    108
                      A                      A                      A
 Frequencies --   3055.0075              3060.7945              3062.7687
 Red. masses --      1.0952                 1.1017                 1.0993
 Frc consts  --      6.0222                 6.0809                 6.0754
 IR Inten    --     39.0495                63.7502                47.3133

                    109                    110                    111
                      A                      A                      A
 Frequencies --   3068.3018              3076.4417              3081.2533
 Red. masses --      1.0969                 1.0948                 1.1063
 Frc consts  --      6.0844                 6.1047                 6.1885
 IR Inten    --     12.4464               112.6318                73.4426

                    112                    113                    114
                      A                      A                      A
 Frequencies --   3085.3898              3111.6721              3113.0877
 Red. masses --      1.1058                 1.1024                 1.1120
 Frc consts  --      6.2023                 6.2891                 6.3495
 IR Inten    --     16.3031                19.7074                 7.1083

 - Thermochemistry -
 -------------------
 Temperature   298.150 Kelvin.  Pressure   1.00000 Atm.
 Atom     1 has atomic number  6 and mass  12.00000

 Molecular mass:   232.16746 amu.
 Principal axes and moments of inertia in atomic units:
                           1         2         3
     Eigenvalues --  2091.938708009.013499291.44374
           X            1.00000  -0.00026   0.00197
           Y            0.00025   0.99998   0.00615
           Z           -0.00198  -0.00615   0.99998
 This molecule is an asymmetric top.
 Rotational symmetry number  1.
 Warning -- assumption of classical behavior for rotation
           may cause significant error
 Rotational temperatures (Kelvin)      0.04140     0.01081     0.00932
 Rotational constants (GHZ):           0.86271     0.22534     0.19424
 Zero-point vibrational energy     936647.9 (Joules/Mol)
                                  223.86422 (Kcal/Mol)
 Warning -- explicit consideration of  26 degrees of freedom as
           vibrations may cause significant error
 Vibrational temperatures:     13.41    24.04    42.63    72.43    91.32
          (Kelvin)            111.54   168.76   175.17   231.88   269.14
                              276.27   311.53   342.73   353.39   405.57
                              409.40   477.15   500.77   538.84   594.74
                              619.11   644.42   688.62   737.61   742.73
                              877.37   908.87  1050.67  1094.79  1117.53
                             1138.08  1184.45  1203.33  1224.06  1265.08
                             1270.76  1323.59  1359.35  1381.97  1426.24
                             1442.31  1470.01  1487.04  1493.01  1515.92
                             1525.48  1532.13  1569.25  1593.07  1608.84
                             1625.95  1638.22  1660.83  1685.06  1692.03
                             1731.45  1762.59  1778.49  1786.48  1815.63
                             1852.92  1862.39  1872.34  1881.91  1905.58
                             1916.61  1940.33  1960.17  1966.23  1986.97
                             1992.48  1994.15  2005.52  2013.84  2017.79
                             2030.44  2040.31  2067.87  2085.45  2104.67
                             2127.14  2134.43  2137.19  2142.84  2144.01
                             2154.16  2170.20  2174.43  2178.76  2200.30
                             4310.95  4318.56  4325.01  4335.78  4336.89
                             4343.45  4345.55  4350.08  4358.44  4361.47
                             4367.67  4371.23  4382.72  4383.01  4395.04
                             4395.47  4403.80  4406.64  4414.60  4426.31
                             4433.24  4439.19  4477.00  4479.04

 Zero-point correction=                           0.356750 (Hartree/Particle)
 Thermal correction to Energy=                    0.374734
 Thermal correction to Enthalpy=                  0.375678
 Thermal correction to Gibbs Free Energy=         0.307090
 Sum of electronic and zero-point Energies=           -772.127845
 Sum of electronic and thermal Energies=              -772.109861
 Sum of electronic and thermal Enthalpies=            -772.108917
 Sum of electronic and thermal Free Energies=         -772.177505

                     E (Thermal)             CV                S
                      KCal/Mol        Cal/Mol-Kelvin    Cal/Mol-Kelvin
 Total                  235.149             66.512            144.356
 Electronic               0.000              0.000              0.000
 Translational            0.889              2.981             42.229
 Rotational               0.889              2.981             33.409
 Vibrational            233.372             60.550             68.718
 Vibration     1          0.593              1.987              8.151
 Vibration     2          0.593              1.986              6.991
 Vibration     3          0.593              1.984              5.854
 Vibration     4          0.595              1.977              4.804
 Vibration     5          0.597              1.972              4.346
 Vibration     6          0.599              1.964              3.953
 Vibration     7          0.608              1.935              3.144
 Vibration     8          0.609              1.931              3.072
 Vibration     9          0.622              1.890              2.536
 Vibration    10          0.632              1.858              2.257
 Vibration    11          0.634              1.851              2.208
 Vibration    12          0.645              1.816              1.988
 Vibration    13          0.656              1.782              1.816
 Vibration    14          0.660              1.770              1.762
 Vibration    15          0.681              1.707              1.522
 Vibration    16          0.683              1.702              1.506
 Vibration    17          0.714              1.612              1.252
 Vibration    18          0.726              1.579              1.175
 Vibration    19          0.746              1.524              1.061
 Vibration    20          0.777              1.441              0.915
 Vibration    21          0.791              1.404              0.858
 Vibration    22          0.807              1.366              0.802
 Vibration    23          0.835              1.297              0.714
 Vibration    24          0.868              1.222              0.627
 Vibration    25          0.871              1.214              0.619
 Vibration    26          0.969              1.011              0.433

 Optimization completed.
    -- Stationary point found.
 Normal termination of Gaussian 16 at Mon May 22 15:37:25 2023.
