 Gaussian 16, Revision A.03,
 Gaussian 16:  ES64L-G16RevA.03 25-Dec-2016

 -----------------------------
 # opt freq b3lyp/6-31g(2df,p)
 -----------------------------

 -------------------
 Title Card Required
 -------------------
 Symbolic Z-matrix:
 Charge =  0 Multiplicity = 1

 SCF Done:  E(RB3LYP) =  -1676.17959352     A.U. after   20 cycles
 SCF Done:  E(RB3LYP) =  -1676.19363661     A.U. after   15 cycles
 SCF Done:  E(RB3LYP) =  -1676.20678000     A.U. after   14 cycles
 SCF Done:  E(RB3LYP) =  -1676.21009637     A.U. after   14 cycles
 SCF Done:  E(RB3LYP) =  -1676.21473718     A.U. after   14 cycles
 SCF Done:  E(RB3LYP) =  -1675.96181263     A.U. after   19 cycles
 SCF Done:  E(RB3LYP) =  -1676.21254715     A.U. after   15 cycles
 SCF Done:  E(RB3LYP) =  -1676.21801741     A.U. after   12 cycles
 SCF Done:  E(RB3LYP) =  -1676.23287690     A.U. after   14 cycles
 SCF Done:  E(RB3LYP) =  -1676.23713316     A.U. after   16 cycles
 SCF Done:  E(RB3LYP) =  -1676.26561001     A.U. after   11 cycles
 SCF Done:  E(RB3LYP) =  -1676.26564549     A.U. after   11 cycles
 SCF Done:  E(RB3LYP) =  -1676.26568084     A.U. after   10 cycles
 SCF Done:  E(RB3LYP) =  -1676.26570870     A.U. after   10 cycles
 SCF Done:  E(RB3LYP) =  -1676.26571393     A.U. after    8 cycles
 SCF Done:  E(RB3LYP) =  -1676.26571643     A.U. after    8 cycles
 SCF Done:  E(RB3LYP) =  -1676.26571724     A.U. after    8 cycles
 SCF Done:  E(RB3LYP) =  -1676.26571736     A.U. after    7 cycles
 SCF Done:  E(RB3LYP) =  -1676.26571743     A.U. after    7 cycles
 Optimization completed.
    -- Stationary point found.
 Normal termination of Gaussian 16 at Sun May 28 11:57:58 2023.

 ----------------------------------------------------------------------
 #N Geom=AllCheck Guess=TCheck SCRF=Check GenChk RB3LYP/6-31G(2df,p) Fr
 eq
 ----------------------------------------------------------------------

 Structure from the checkpoint file:  "CSC1dCCdCCdCCdC1SCSCdN.chk"
 -------------------
 Title Card Required
 -------------------
 Charge =  0 Multiplicity = 1

                         Standard orientation:
 ---------------------------------------------------------------------
 Center     Atomic      Atomic             Coordinates (Angstroms)
 Number     Number       Type             X           Y           Z
 ---------------------------------------------------------------------
      1          6           0       -3.396913    2.100724    1.029627
      2         16           0       -2.134325    1.910261   -0.261550
      3          6           0       -1.393082    0.336015    0.127233
      4          6           0       -1.606058   -0.333858    1.272704
      5          6           0       -1.086715   -1.655097    1.641850
      6          6           0       -1.213352   -2.797016    0.949624
      7          6           0       -1.842148   -2.979761   -0.360634
      8          6           0       -1.594656   -2.289914   -1.482729
      9          6           0       -0.575018   -1.247072   -1.644017
     10          6           0       -0.459486   -0.111582   -0.942229
     11         16           0        0.802799    1.046237   -1.457296
     12          6           0        1.555002    1.534568    0.130293
     13         16           0        2.519641    0.273279    1.037996
     14          6           0        3.935923    0.087315   -0.023482
     15          7           0        4.935886   -0.662656    0.170953
     16          1           0       -3.960373    2.995458    0.757256
     17          1           0       -2.950733    2.251824    2.015199
     18          1           0       -4.069521    1.240467    1.049058
     19          1           0       -2.220688    0.130511    2.040189
     20          1           0       -0.666272   -1.720664    2.644746
     21          1           0       -0.880839   -3.715013    1.432658
     22          1           0       -2.531485   -3.820763   -0.429679
     23          1           0       -2.090034   -2.606357   -2.399734
     24          1           0        0.147195   -1.419129   -2.441532
     25          1           0        0.777947    1.861409    0.822750
     26          1           0        2.191336    2.391090   -0.099586
     27          1           0        3.888813    0.702406   -0.925332
     28          1           0        4.862633   -1.195008    1.041493
 ---------------------------------------------------------------------

 SCF Done:  E(RB3LYP) =  -1676.26571743     A.U. after    1 cycles

 The electronic state is 1-A.
 Alpha  occ. eigenvalues --  -88.88848 -88.88742 -88.88699 -14.31788 -10.25328
 Alpha  occ. eigenvalues --  -10.25103 -10.23114 -10.22917 -10.22045 -10.20221
 Alpha  occ. eigenvalues --  -10.19686 -10.19641 -10.19608 -10.19584 -10.19293
 Alpha  occ. eigenvalues --   -7.95240  -7.94970  -7.94921  -5.91681  -5.91458
 Alpha  occ. eigenvalues --   -5.91405  -5.91324  -5.91066  -5.91055  -5.90844
 Alpha  occ. eigenvalues --   -5.90549  -5.90475  -0.90707  -0.86500  -0.82078
 Alpha  occ. eigenvalues --   -0.81231  -0.79141  -0.76846  -0.73179  -0.70240
 Alpha  occ. eigenvalues --   -0.67895  -0.64177  -0.62096  -0.58774  -0.57433
 Alpha  occ. eigenvalues --   -0.55109  -0.50404  -0.48514  -0.46938  -0.46697
 Alpha  occ. eigenvalues --   -0.45615  -0.44815  -0.44592  -0.44250  -0.43456
 Alpha  occ. eigenvalues --   -0.42503  -0.40722  -0.39534  -0.37490  -0.36633
 Alpha  occ. eigenvalues --   -0.34889  -0.34644  -0.34180  -0.32297  -0.31135
 Alpha  occ. eigenvalues --   -0.29566  -0.28807  -0.26523  -0.25361  -0.23987
 Alpha  occ. eigenvalues --   -0.22002  -0.20829
 Alpha virt. eigenvalues --   -0.05449  -0.00640  -0.00521   0.00787   0.02040
 Alpha virt. eigenvalues --    0.03583   0.05089   0.06734   0.07689   0.07957
 Alpha virt. eigenvalues --    0.09014   0.10168   0.10960   0.11176   0.12347

 Mulliken charges:
               1
     1  C   -0.401367
     2  S   -0.086125
     3  C    0.093646
     4  C   -0.172355
     5  C   -0.102341
     6  C   -0.093928
     7  C   -0.085718
     8  C   -0.122933
     9  C   -0.148558
    10  C    0.165868
    11  S   -0.148588
    12  C   -0.239973
    13  S   -0.099729
    14  C    0.042375
    15  N   -0.391043
    16  H    0.151755
    17  H    0.149300
    18  H    0.155331
    19  H    0.098379
    20  H    0.099987
    21  H    0.099654
    22  H    0.100696
    23  H    0.103340
    24  H    0.122355
    25  H    0.176671
    26  H    0.162417
    27  H    0.136144
    28  H    0.234741
 Sum of Mulliken charges =  -0.00000

 Dipole moment (field-independent basis, Debye):
    X=             -3.4594    Y=              0.1397    Z=              1.9297  Tot=              3.9636
 Quadrupole moment (field-independent basis, Debye-Ang):
   XX=           -118.3964   YY=           -102.3279   ZZ=           -106.4418
   XY=              2.7107   XZ=             -1.1178   YZ=              2.7183

  Exact polarizability: 194.181  -5.577 199.157  -2.544  -4.286 161.532
 Approx polarizability: 275.773  -8.606 343.362  -8.473 -15.216 303.955

                      1                      2                      3
                      A                      A                      A
 Frequencies --     21.1992                24.7761                47.9367
 Red. masses --      6.4835                 5.8245                 7.7351
 Frc consts  --      0.0017                 0.0021                 0.0105
 IR Inten    --      0.8433                 0.0593                 0.2837

                      4                      5                      6
                      A                      A                      A
 Frequencies --     61.2753                79.2283                87.4569
 Red. masses --      3.4610                 6.1936                 1.9071
 Frc consts  --      0.0077                 0.0229                 0.0086
 IR Inten    --      0.8317                 0.7105                 0.0849

                      7                      8                      9
                      A                      A                      A
 Frequencies --    102.7579               132.7312               170.6944
 Red. masses --      5.6987                 4.8513                 5.8393
 Frc consts  --      0.0355                 0.0504                 0.1002
 IR Inten    --      0.6943                 0.1768                 1.9760

                     10                     11                     12
                      A                      A                      A
 Frequencies --    197.1841               212.6744               232.0050
 Red. masses --      2.7634                 3.2655                 2.2326
 Frc consts  --      0.0633                 0.0870                 0.0708
 IR Inten    --      0.5109                 0.3872                 0.0472

                     13                     14                     15
                      A                      A                      A
 Frequencies --    244.3012               262.9277               266.9804
 Red. masses --      1.5676                 3.2699                 5.2066
 Frc consts  --      0.0551                 0.1332                 0.2187
 IR Inten    --      0.4541                 6.8103                 2.9654

                     16                     17                     18
                      A                      A                      A
 Frequencies --    302.7329               348.6310               355.9757
 Red. masses --      4.8697                 4.1719                 2.5989
 Frc consts  --      0.2630                 0.2988                 0.1940
 IR Inten    --      1.5244                 2.5870                 3.0902

                     19                     20                     21
                      A                      A                      A
 Frequencies --    430.2649               443.8030               477.8600
 Red. masses --      5.5133                 5.3181                 5.8659
 Frc consts  --      0.6014                 0.6171                 0.7892
 IR Inten    --      0.5071                 2.6140                 4.9644

                     22                     23                     24
                      A                      A                      A
 Frequencies --    487.7124               577.9266               642.3397
 Red. masses --      5.5648                 5.9425                 5.8771
 Frc consts  --      0.7799                 1.1694                 1.4287
 IR Inten    --      0.4884                 1.2745                 0.6561

                     25                     26                     27
                      A                      A                      A
 Frequencies --    652.8586               698.0180               701.8909
 Red. masses --      2.8382                 2.1477                 2.8991
 Frc consts  --      0.7127                 0.6165                 0.8415
 IR Inten    --     16.9564                27.8089                26.5598

                     28                     29                     30
                      A                      A                      A
 Frequencies --    708.9255               719.5715               720.9714
 Red. masses --      4.3355                 5.4788                 3.5127
 Frc consts  --      1.2838                 1.6714                 1.0758
 IR Inten    --     73.5792                27.3783                 4.6449

                     31                     32                     33
                      A                      A                      A
 Frequencies --    753.4162               804.1148               806.0650
 Red. masses --      2.0500                 2.2008                 2.1531
 Frc consts  --      0.6856                 0.8384                 0.8242
 IR Inten    --     12.4753                 3.9973                 9.3066

                     34                     35                     36
                      A                      A                      A
 Frequencies --    839.5092               875.9318               899.3652
 Red. masses --      2.0692                 1.8554                 2.0715
 Frc consts  --      0.8592                 0.8387                 0.9872
 IR Inten    --      8.4872                 9.6769                 9.3944

                     37                     38                     39
                      A                      A                      A
 Frequencies --    927.2376               962.3592               963.2347
 Red. masses --      2.7946                 1.2395                 3.1539
 Frc consts  --      1.4156                 0.6763                 1.7241
 IR Inten    --      1.9957                 1.0667                21.8849

                     40                     41                     42
                      A                      A                      A
 Frequencies --    971.8465               986.8510               997.5219
 Red. masses --      1.4439                 1.3644                 1.5332
 Frc consts  --      0.8035                 0.7829                 0.8989
 IR Inten    --      2.2168                 3.4571                 2.1238

                     43                     44                     45
                      A                      A                      A
 Frequencies --   1009.8140              1015.1728              1087.2491
 Red. masses --      2.8871                 2.3698                 2.0208
 Frc consts  --      1.7346                 1.4389                 1.4074
 IR Inten    --     24.1249                 1.4674                15.1215

                     46                     47                     48
                      A                      A                      A
 Frequencies --   1088.4257              1159.7485              1192.9728
 Red. masses --      1.0828                 1.0399                 1.1872
 Frc consts  --      0.7557                 0.8241                 0.9955
 IR Inten    --     49.8172                 4.9574               216.5735

                     49                     50                     51
                      A                      A                      A
 Frequencies --   1227.1234              1239.3637              1249.3551
 Red. masses --      1.1558                 1.0604                 1.0894
 Frc consts  --      1.0255                 0.9596                 1.0018
 IR Inten    --      8.6937                 2.0479                 0.8634

                     52                     53                     54
                      A                      A                      A
 Frequencies --   1318.7246              1346.6832              1371.9867
 Red. masses --      1.2433                 1.1789                 1.1802
 Frc consts  --      1.2739                 1.2597                 1.3089
 IR Inten    --      3.1721                 4.2851                68.6103

                     55                     56                     57
                      A                      A                      A
 Frequencies --   1382.9222              1405.4392              1420.6627
 Red. masses --      1.4682                 1.3631                 1.0827
 Frc consts  --      1.6544                 1.5863                 1.2875
 IR Inten    --      5.1288                 3.5246                10.0329

                     58                     59                     60
                      A                      A                      A
 Frequencies --   1449.7350              1462.9298              1484.6726
 Red. masses --      1.6805                 1.0537                 1.0531
 Frc consts  --      2.0809                 1.3287                 1.3677
 IR Inten    --      1.8429                 8.4070                13.9464

                     61                     62                     63
                      A                      A                      A
 Frequencies --   1654.3441              1675.3830              1683.0558
 Red. masses --      7.3224                 8.1523                 7.6531
 Frc consts  --     11.8075                13.4822                12.7727
 IR Inten    --     35.8945               193.6211                 0.6662

                     64                     65                     66
                      A                      A                      A
 Frequencies --   1691.0470              1697.9820              3044.2977
 Red. masses --      5.8567                10.9276                 1.0294
 Frc consts  --      9.8677                18.5627                 5.6210
 IR Inten    --      1.0605                 7.4072                16.4881

                     67                     68                     69
                      A                      A                      A
 Frequencies --   3079.1750              3102.5530              3117.1091
 Red. masses --      1.0568                 1.0902                 1.0805
 Frc consts  --      5.9037                 6.1828                 6.1857
 IR Inten    --      4.9161                 9.2372                 0.7891

                     70                     71                     72
                      A                      A                      A
 Frequencies --   3121.4931              3129.2422              3130.3386
 Red. masses --      1.0818                 1.0868                 1.1065
 Frc consts  --      6.2104                 6.2699                 6.3882
 IR Inten    --      0.2945                 9.7522                 5.4589

                     73                     74                     75
                      A                      A                      A
 Frequencies --   3138.5300              3142.1209              3142.3729
 Red. masses --      1.0912                 1.1019                 1.1084
 Frc consts  --      6.3333                 6.4096                 6.4484
 IR Inten    --     31.3204                10.8806                 0.9597

                     76                     77                     78
                      A                      A                      A
 Frequencies --   3145.4215              3153.0002              3440.3331
 Red. masses --      1.0941                 1.0878                 1.0749
 Frc consts  --      6.3774                 6.3715                 7.4958
 IR Inten    --     32.7060                11.3998                 1.4099

 - Thermochemistry -
 -------------------
 Temperature   298.150 Kelvin.  Pressure   1.00000 Atm.
 Atom     1 has atomic number  6 and mass  12.00000

 Molecular mass:   255.02101 amu.
 Principal axes and moments of inertia in atomic units:
                           1         2         3
     Eigenvalues --  3255.965295768.451716989.46943
           X            0.99992  -0.00075  -0.01259
           Y            0.00109   0.99965   0.02660
           Z            0.01256  -0.02661   0.99957
 This molecule is an asymmetric top.
 Rotational symmetry number  1.
 Warning -- assumption of classical behavior for rotation
           may cause significant error
 Rotational temperatures (Kelvin)      0.02660     0.01502     0.01239
 Rotational constants (GHZ):           0.55429     0.31286     0.25821
 Zero-point vibrational energy     558667.1 (Joules/Mol)
                                  133.52464 (Kcal/Mol)
 Warning -- explicit consideration of  23 degrees of freedom as
           vibrations may cause significant error
 Vibrational temperatures:     30.50    35.65    68.97    88.16   113.99
          (Kelvin)            125.83   147.85   190.97   245.59   283.70
                              305.99   333.80   351.49   378.29   384.13
                              435.57   501.60   512.17   619.06   638.53
                              687.53   701.71   831.51   924.18   939.32
                             1004.29  1009.86  1019.99  1035.30  1037.32
                             1084.00  1156.94  1159.75  1207.87  1260.27
                             1293.99  1334.09  1384.62  1385.88  1398.27
                             1419.86  1435.21  1452.90  1460.61  1564.31
                             1566.00  1668.62  1716.42  1765.56  1783.17
                             1797.54  1897.35  1937.58  1973.98  1989.72
                             2022.11  2044.02  2085.85  2104.83  2136.11
                             2380.23  2410.50  2421.54  2433.04  2443.02
                             4380.07  4430.25  4463.88  4484.82  4491.13
                             4502.28  4503.86  4515.64  4520.81  4521.17
                             4525.56  4536.46  4949.87

 Zero-point correction=                           0.212785 (Hartree/Particle)
 Thermal correction to Energy=                    0.229750
 Thermal correction to Enthalpy=                  0.230694
 Thermal correction to Gibbs Free Energy=         0.165510
 Sum of electronic and zero-point Energies=          -1676.052932
 Sum of electronic and thermal Energies=             -1676.035967
 Sum of electronic and thermal Enthalpies=           -1676.035023
 Sum of electronic and thermal Free Energies=        -1676.100208

                     E (Thermal)             CV                S
                      KCal/Mol        Cal/Mol-Kelvin    Cal/Mol-Kelvin
 Total                  144.170             60.982            137.193
 Electronic               0.000              0.000              0.000
 Translational            0.889              2.981             42.509
 Rotational               0.889              2.981             33.240
 Vibrational            142.393             55.020             61.444
 Vibration     1          0.593              1.985              6.519
 Vibration     2          0.593              1.985              6.209
 Vibration     3          0.595              1.978              4.901
 Vibration     4          0.597              1.973              4.416
 Vibration     5          0.600              1.963              3.910
 Vibration     6          0.601              1.958              3.716
 Vibration     7          0.605              1.947              3.401
 Vibration     8          0.613              1.921              2.906
 Vibration     9          0.626              1.879              2.428
 Vibration    10          0.637              1.844              2.159
 Vibration    11          0.644              1.822              2.021
 Vibration    12          0.653              1.792              1.863
 Vibration    13          0.660              1.772              1.771
 Vibration    14          0.670              1.741              1.642
 Vibration    15          0.672              1.734              1.616
 Vibration    16          0.694              1.669              1.402
 Vibration    17          0.726              1.578              1.172
 Vibration    18          0.731              1.563              1.140
 Vibration    19          0.791              1.404              0.858
 Vibration    20          0.803              1.375              0.815
 Vibration    21          0.834              1.299              0.716
 Vibration    22          0.844              1.277              0.690
 Vibration    23          0.934              1.079              0.489

 Optimization completed.
    -- Stationary point found.
 Normal termination of Gaussian 16 at Sun May 28 14:03:30 2023.
