 Gaussian 16, Revision A.03,
 Gaussian 16:  ES64L-G16RevA.03 25-Dec-2016

 -----------------------------
 # opt freq b3lyp/6-31g(2df,p)
 -----------------------------

 -------------------
 Title Card Required
 -------------------
 Symbolic Z-matrix:
 Charge =  0 Multiplicity = 1

 SCF Done:  E(RB3LYP) =  -1184.57090654     A.U. after   19 cycles
 SCF Done:  E(RB3LYP) =  -1184.60641790     A.U. after   17 cycles
 SCF Done:  E(RB3LYP) =  -1184.62344654     A.U. after   17 cycles
 SCF Done:  E(RB3LYP) =  -1184.65398289     A.U. after   15 cycles
 SCF Done:  E(RB3LYP) =  -1184.67255416     A.U. after   14 cycles
 SCF Done:  E(RB3LYP) =  -1184.67391860     A.U. after   11 cycles
 SCF Done:  E(RB3LYP) =  -1184.68093162     A.U. after   14 cycles
 SCF Done:  E(RB3LYP) =  -1184.68255292     A.U. after   13 cycles
 SCF Done:  E(RB3LYP) =  -1184.68352051     A.U. after   13 cycles
 SCF Done:  E(RB3LYP) =  -1184.68675898     A.U. after   12 cycles
 SCF Done:  E(RB3LYP) =  -1184.77645888     A.U. after   11 cycles
 SCF Done:  E(RB3LYP) =  -1184.77646491     A.U. after   10 cycles
 SCF Done:  E(RB3LYP) =  -1184.77646617     A.U. after    8 cycles
 SCF Done:  E(RB3LYP) =  -1184.77646674     A.U. after    8 cycles
 SCF Done:  E(RB3LYP) =  -1184.77646704     A.U. after    8 cycles
 SCF Done:  E(RB3LYP) =  -1184.77646713     A.U. after    6 cycles
 SCF Done:  E(RB3LYP) =  -1184.77646716     A.U. after    7 cycles
 SCF Done:  E(RB3LYP) =  -1184.77646715     A.U. after    6 cycles
 SCF Done:  E(RB3LYP) =  -1184.77646712     A.U. after    6 cycles
 Optimization completed.
    -- Stationary point found.
 Normal termination of Gaussian 16 at Mon May 29 19:37:20 2023.

 ----------------------------------------------------------------------
 #N Geom=AllCheck Guess=TCheck SCRF=Check GenChk RB3LYP/6-31G(2df,p) Fr
 eq
 ----------------------------------------------------------------------

 Structure from the checkpoint file:  "CSc1cc1d[SH]CCCCO.chk"
 -------------------
 Title Card Required
 -------------------
 Charge =  0 Multiplicity = 1

                         Standard orientation:
 ---------------------------------------------------------------------
 Center     Atomic      Atomic             Coordinates (Angstroms)
 Number     Number       Type             X           Y           Z
 ---------------------------------------------------------------------
      1          6           0       -2.399145   -0.273809    1.709221
      2         16           0       -3.512164    0.715547    0.643329
      3          6           0       -2.488482    1.160080   -0.616601
      4          6           0       -2.271950    1.799455   -1.774508
      5          6           0       -1.186761    1.107233   -1.236085
      6         16           0        0.111333   -2.887854   -0.301100
      7          6           0        1.206109   -1.524515   -0.863939
      8          6           0        1.913271   -0.773702    0.262507
      9          6           0        2.727476    0.413706   -0.268130
     10          6           0        3.467665    1.163323    0.839873
     11          8           0        4.179324    2.296640    0.367418
     12          1           0       -3.035334   -0.708650    2.482341
     13          1           0       -1.650611    0.372761    2.167032
     14          1           0       -1.920848   -1.063715    1.129492
     15          1           0       -2.669831    2.414887   -2.566017
     16          1           0        1.040789   -3.599523    0.365632
     17          1           0        0.528635   -0.842888   -1.387095
     18          1           0        1.921459   -1.925750   -1.587214
     19          1           0        2.566859   -1.460929    0.816980
     20          1           0        1.161906   -0.413293    0.974325
     21          1           0        2.061143    1.110805   -0.788070
     22          1           0        3.460158    0.057740   -1.008156
     23          1           0        4.134673    0.471187    1.381303
     24          1           0        2.750496    1.552159    1.571632
     25          1           0        4.820108    1.988364   -0.281225
 ---------------------------------------------------------------------

 SCF Done:  E(RB3LYP) =  -1184.77646712     A.U. after    1 cycles

 The electronic state is 1-A.
 Alpha  occ. eigenvalues --  -88.91894 -88.86084 -19.12621 -10.25576 -10.23359
 Alpha  occ. eigenvalues --  -10.22370 -10.21898 -10.20198 -10.19828 -10.18152
 Alpha  occ. eigenvalues --  -10.17344  -7.98060  -7.92664  -5.94520  -5.94120
 Alpha  occ. eigenvalues --   -5.93724  -5.89111  -5.88771  -5.88196  -1.00708
 Alpha  occ. eigenvalues --   -0.92062  -0.81363  -0.80248  -0.74766  -0.68992
 Alpha  occ. eigenvalues --   -0.67455  -0.60712  -0.58375  -0.58084  -0.51525
 Alpha  occ. eigenvalues --   -0.49602  -0.47181  -0.46063  -0.44493  -0.43349
 Alpha  occ. eigenvalues --   -0.42271  -0.41010  -0.40396  -0.38917  -0.38281
 Alpha  occ. eigenvalues --   -0.38039  -0.36316  -0.34360  -0.33256  -0.32204
 Alpha  occ. eigenvalues --   -0.31311  -0.30402  -0.26933  -0.25876  -0.23142
 Alpha  occ. eigenvalues --   -0.22963
 Alpha virt. eigenvalues --   -0.01857  -0.00281   0.01603   0.03717   0.07103
 Alpha virt. eigenvalues --    0.07614   0.08302   0.09352   0.11093   0.11499
 Alpha virt. eigenvalues --    0.12851   0.13230   0.14385   0.14869   0.16170

 Mulliken charges:
               1
     1  C   -0.404265
     2  S   -0.055657
     3  C    0.234576
     4  C   -0.135265
     5  C   -0.298366
     6  S   -0.301698
     7  C   -0.197422
     8  C   -0.167004
     9  C   -0.209183
    10  C   -0.054810
    11  O   -0.419205
    12  H    0.154573
    13  H    0.163217
    14  H    0.206878
    15  H    0.165356
    16  H    0.148954
    17  H    0.171566
    18  H    0.119948
    19  H    0.088032
    20  H    0.109664
    21  H    0.135112
    22  H    0.078744
    23  H    0.079644
    24  H    0.108387
    25  H    0.278225
 Sum of Mulliken charges =  -0.00000

 Dipole moment (field-independent basis, Debye):
    X=             -0.8887    Y=             -0.1952    Z=              0.4919  Tot=              1.0343
 Quadrupole moment (field-independent basis, Debye-Ang):
   XX=            -73.6014   YY=            -88.8643   ZZ=            -76.8381
   XY=            -10.7465   XZ=             -2.9697   YZ=             -7.4427

  Exact polarizability: 135.478   3.915 122.177  -9.461 -16.043 122.485
 Approx polarizability: 191.566   3.256 177.984 -21.068 -30.320 198.675

                      1                      2                      3
                      A                      A                      A
 Frequencies --     12.5529                15.3614                27.8042
 Red. masses --      5.5758                 5.8796                 3.8052
 Frc consts  --      0.0005                 0.0008                 0.0017
 IR Inten    --      0.1429                 0.6107                 2.0206

                      4                      5                      6
                      A                      A                      A
 Frequencies --     36.9345                50.9966                65.7152
 Red. masses --      3.3095                 4.2709                 4.0131
 Frc consts  --      0.0027                 0.0065                 0.0102
 IR Inten    --      2.4905                 1.3503                 0.8198

                      7                      8                      9
                      A                      A                      A
 Frequencies --     87.2363               110.2538               116.5744
 Red. masses --      3.2702                 1.1831                 3.4955
 Frc consts  --      0.0147                 0.0085                 0.0280
 IR Inten    --      7.4209                 0.0988                 1.6279

                     10                     11                     12
                      A                      A                      A
 Frequencies --    127.5252               160.1654               166.3155
 Red. masses --      1.6992                 2.5188                 3.3311
 Frc consts  --      0.0163                 0.0381                 0.0543
 IR Inten    --      1.2422                 0.5359                 9.8267

                     13                     14                     15
                      A                      A                      A
 Frequencies --    179.8676               236.5043               266.6886
 Red. masses --      3.6600                 1.2493                 2.5081
 Frc consts  --      0.0698                 0.0412                 0.1051
 IR Inten    --     15.3922                12.5223                23.8231

                     16                     17                     18
                      A                      A                      A
 Frequencies --    306.9715               340.2524               402.3579
 Red. masses --      1.3882                 3.4274                 4.5270
 Frc consts  --      0.0771                 0.2338                 0.4318
 IR Inten    --     88.7435                 7.3019                 6.1528

                     19                     20                     21
                      A                      A                      A
 Frequencies --    424.7037               480.7431               590.6131
 Red. masses --      6.1485                 3.8938                 8.1530
 Frc consts  --      0.6534                 0.5302                 1.6756
 IR Inten    --      0.7693                10.7541                 2.1392

                     22                     23                     24
                      A                      A                      A
 Frequencies --    689.3732               703.6196               734.8257
 Red. masses --      6.4934                 2.3480                 1.2685
 Frc consts  --      1.8182                 0.6849                 0.4036
 IR Inten    --      0.2696                 9.4131                10.9562

                     25                     26                     27
                      A                      A                      A
 Frequencies --    771.6950               849.9185               888.7768
 Red. masses --      1.1972                 1.1872                 1.3995
 Frc consts  --      0.4201                 0.5053                 0.6514
 IR Inten    --      1.3355                 4.3137                 8.2892

                     28                     29                     30
                      A                      A                      A
 Frequencies --    943.9735               966.2165               968.6742
 Red. masses --      1.2494                 1.2866                 1.1996
 Frc consts  --      0.6559                 0.7077                 0.6632
 IR Inten    --      5.9599                 4.6149                 1.2724

                     31                     32                     33
                      A                      A                      A
 Frequencies --    988.1117              1004.8983              1041.3150
 Red. masses --      1.2975                 3.8529                 3.0950
 Frc consts  --      0.7464                 2.2923                 1.9773
 IR Inten    --      1.6796                13.7148                 0.6679

                     34                     35                     36
                      A                      A                      A
 Frequencies --   1052.7934              1062.1925              1080.8413
 Red. masses --      8.0436                 2.4279                 4.1083
 Frc consts  --      5.2528                 1.6139                 2.8277
 IR Inten    --     35.8135                20.5476               103.8438

                     37                     38                     39
                      A                      A                      A
 Frequencies --   1123.8894              1146.7684              1246.7161
 Red. masses --      1.6968                 1.1357                 1.2247
 Frc consts  --      1.2628                 0.8800                 1.1215
 IR Inten    --      6.9363                 2.5903                 1.6136

                     40                     41                     42
                      A                      A                      A
 Frequencies --   1268.1932              1309.5659              1322.8955
 Red. masses --      1.3662                 7.3780                 1.1862
 Frc consts  --      1.2946                 7.4549                 1.2231
 IR Inten    --     18.1230                71.7437                 1.4495

                     43                     44                     45
                      A                      A                      A
 Frequencies --   1323.7368              1327.3544              1351.3328
 Red. masses --      1.0842                 1.2088                 1.1534
 Frc consts  --      1.1193                 1.2548                 1.2409
 IR Inten    --      4.2911                 5.8448                 5.6587

                     46                     47                     48
                      A                      A                      A
 Frequencies --   1376.2412              1398.5383              1424.8227
 Red. masses --      1.3745                 1.3475                 1.2874
 Frc consts  --      1.5339                 1.5528                 1.5399
 IR Inten    --      0.4275                 5.4842                64.5284

                     49                     50                     51
                      A                      A                      A
 Frequencies --   1464.1114              1471.6605              1475.3216
 Red. masses --      1.0515                 1.0761                 1.0559
 Frc consts  --      1.3280                 1.3731                 1.3541
 IR Inten    --      5.6548                 9.7073                 8.4872

                     52                     53                     54
                      A                      A                      A
 Frequencies --   1484.0104              1495.9722              1516.9439
 Red. masses --      1.0793                 1.0879                 1.0961
 Frc consts  --      1.4005                 1.4344                 1.4860
 IR Inten    --      1.5704                 2.5998                 0.5543

                     55                     56                     57
                      A                      A                      A
 Frequencies --   1679.4295              2665.6999              2960.1387
 Red. masses --      7.6206                 1.0384                 1.0714
 Frc consts  --     12.6637                 4.3476                 5.5311
 IR Inten    --     31.2589                 7.9928                59.6197

                     58                     59                     60
                      A                      A                      A
 Frequencies --   2996.3593              3013.9386              3049.9847
 Red. masses --      1.0675                 1.0640                 1.0628
 Frc consts  --      5.6470                 5.6944                 5.8250
 IR Inten    --     24.5544                29.1286                15.1173

                     61                     62                     63
                      A                      A                      A
 Frequencies --   3060.3278              3061.4399              3062.1894
 Red. masses --      1.0877                 1.0426                 1.0723
 Frc consts  --      6.0017                 5.7571                 5.9242
 IR Inten    --     22.4070                 3.7486                27.5834

                     64                     65                     66
                      A                      A                      A
 Frequencies --   3083.8196              3111.2913              3159.4565
 Red. masses --      1.0994                 1.1079                 1.1051
 Frc consts  --      6.1603                 6.3188                 6.4995
 IR Inten    --     53.1675                 6.0159                 1.9436

                     67                     68                     69
                      A                      A                      A
 Frequencies --   3168.7555              3262.0289              3814.1006
 Red. masses --      1.1085                 1.1128                 1.0660
 Frc consts  --      6.5577                 6.9767                 9.1371
 IR Inten    --      7.0923                 0.0683                15.0836

 - Thermochemistry -
 -------------------
 Temperature   298.150 Kelvin.  Pressure   1.00000 Atm.
 Atom     1 has atomic number  6 and mass  12.00000

 Molecular mass:   190.04861 amu.
 Principal axes and moments of inertia in atomic units:
                           1         2         3
     Eigenvalues --  2467.722095196.134706490.77519
           X            0.99999   0.00398  -0.00254
           Y           -0.00401   0.99988  -0.01489
           Z            0.00248   0.01490   0.99989
 This molecule is an asymmetric top.
 Rotational symmetry number  1.
 Warning -- assumption of classical behavior for rotation
           may cause significant error
 Rotational temperatures (Kelvin)      0.03510     0.01667     0.01334
 Rotational constants (GHZ):           0.73134     0.34732     0.27805
 Zero-point vibrational energy     524146.2 (Joules/Mol)
                                  125.27394 (Kcal/Mol)
 Warning -- explicit consideration of  21 degrees of freedom as
           vibrations may cause significant error
 Vibrational temperatures:     18.06    22.10    40.00    53.14    73.37
          (Kelvin)             94.55   125.51   158.63   167.72   183.48
                              230.44   239.29   258.79   340.28   383.71
                              441.66   489.55   578.90   611.05   691.68
                              849.76   991.85  1012.35  1057.25  1110.30
                             1222.84  1278.75  1358.17  1390.17  1393.71
                             1421.67  1445.82  1498.22  1514.73  1528.26
                             1555.09  1617.03  1649.94  1793.75  1824.65
                             1884.17  1903.35  1904.56  1909.77  1944.27
                             1980.10  2012.18  2050.00  2106.53  2117.39
                             2122.66  2135.16  2152.37  2182.54  2416.32
                             3835.35  4258.98  4311.09  4336.39  4388.25
                             4403.13  4404.73  4405.81  4436.93  4476.45
                             4545.75  4559.13  4693.33  5487.64

 Zero-point correction=                           0.199637 (Hartree/Particle)
 Thermal correction to Energy=                    0.216154
 Thermal correction to Enthalpy=                  0.217098
 Thermal correction to Gibbs Free Energy=         0.149728
 Sum of electronic and zero-point Energies=          -1184.576830
 Sum of electronic and thermal Energies=             -1184.560313
 Sum of electronic and thermal Enthalpies=           -1184.559369
 Sum of electronic and thermal Free Energies=        -1184.626739

                     E (Thermal)             CV                S
                      KCal/Mol        Cal/Mol-Kelvin    Cal/Mol-Kelvin
 Total                  135.639             53.131            141.792
 Electronic               0.000              0.000              0.000
 Translational            0.889              2.981             41.632
 Rotational               0.889              2.981             32.787
 Vibrational            133.861             47.169             67.373
 Vibration     1          0.593              1.987              7.559
 Vibration     2          0.593              1.986              7.158
 Vibration     3          0.593              1.984              5.980
 Vibration     4          0.594              1.982              5.417
 Vibration     5          0.595              1.977              4.778
 Vibration     6          0.597              1.971              4.278
 Vibration     7          0.601              1.958              3.721
 Vibration     8          0.606              1.941              3.264
 Vibration     9          0.608              1.936              3.156
 Vibration    10          0.611              1.926              2.983
 Vibration    11          0.622              1.891              2.548
 Vibration    12          0.624              1.884              2.477
 Vibration    13          0.629              1.867              2.330
 Vibration    14          0.655              1.785              1.829
 Vibration    15          0.672              1.734              1.618
 Vibration    16          0.697              1.660              1.379
 Vibration    17          0.720              1.595              1.211
 Vibration    18          0.768              1.465              0.954
 Vibration    19          0.787              1.417              0.876
 Vibration    20          0.837              1.293              0.708
 Vibration    21          0.948              1.052              0.466

                           ! Non-Optimized Parameters !
 Normal termination of Gaussian 16 at Mon May 29 20:19:46 2023.
