 Gaussian 16, Revision A.03,
 Gaussian 16:  ES64L-G16RevA.03 25-Dec-2016

 -----------------------------
 # opt freq b3lyp/6-31g(2df,p)
 -----------------------------

 -------------------
 Title Card Required
 -------------------
 Symbolic Z-matrix:
 Charge =  0 Multiplicity = 1

 SCF Done:  E(RB3LYP) =  -1983.78702245     A.U. after   18 cycles
 SCF Done:  E(RB3LYP) =  -1983.81879685     A.U. after   14 cycles
 SCF Done:  E(RB3LYP) =  -1983.84211950     A.U. after   15 cycles
 SCF Done:  E(RB3LYP) =  -1983.87617843     A.U. after   14 cycles
 SCF Done:  E(RB3LYP) =  -1983.92059371     A.U. after   14 cycles
 SCF Done:  E(RB3LYP) =  -1983.93444405     A.U. after   13 cycles
 SCF Done:  E(RB3LYP) =  -1983.94311967     A.U. after   13 cycles
 SCF Done:  E(RB3LYP) =  -1983.94955736     A.U. after   13 cycles
 SCF Done:  E(RB3LYP) =  -1983.95328378     A.U. after   12 cycles
 SCF Done:  E(RB3LYP) =  -1983.95587367     A.U. after   12 cycles
 SCF Done:  E(RB3LYP) =  -1983.97171932     A.U. after   12 cycles
 SCF Done:  E(RB3LYP) =  -1983.97172155     A.U. after   10 cycles
 SCF Done:  E(RB3LYP) =  -1983.97172535     A.U. after   10 cycles
 SCF Done:  E(RB3LYP) =  -1983.97173427     A.U. after    9 cycles
 SCF Done:  E(RB3LYP) =  -1983.97173527     A.U. after   10 cycles
 SCF Done:  E(RB3LYP) =  -1983.97173688     A.U. after    9 cycles
 SCF Done:  E(RB3LYP) =  -1983.97173754     A.U. after    9 cycles
 SCF Done:  E(RB3LYP) =  -1983.97173779     A.U. after    8 cycles
 SCF Done:  E(RB3LYP) =  -1983.97173781     A.U. after    6 cycles
 Optimization completed.
    -- Stationary point found.
 Normal termination of Gaussian 16 at Sun May 28 12:00:38 2023.

 ----------------------------------------------------------------------
 #N Geom=AllCheck Guess=TCheck SCRF=Check GenChk RB3LYP/6-31G(2df,p) Fr
 eq
 ----------------------------------------------------------------------

 Structure from the checkpoint file:  "CSCNqCrCC[SH]qCr[PH]qdOrCSC.chk"
 -------------------
 Title Card Required
 -------------------
 Charge =  0 Multiplicity = 1

                         Standard orientation:
 ---------------------------------------------------------------------
 Center     Atomic      Atomic             Coordinates (Angstroms)
 Number     Number       Type             X           Y           Z
 ---------------------------------------------------------------------
      1          6           0        5.473478   -1.288998   -0.429241
      2         16           0        3.752898   -0.849065   -0.827145
      3          6           0        2.977556   -1.259039    0.856823
      4          7           0        1.567425   -1.146232    0.935215
      5          6           0        0.784931   -2.150205    0.227630
      6          6           0        0.979920    0.169041    1.058858
      7          6           0        0.821896    0.936085   -0.276394
      8         16           0        0.020077    2.568807   -0.042684
      9          6           0        1.588823    3.577521    0.033454
     10         15           0       -3.071693    1.459043   -0.347013
     11          8           0       -1.706380    1.310485    0.451037
     12          6           0       -3.532886   -0.286400   -0.864660
     13         16           0       -3.332070   -1.543212    0.445453
     14          6           0       -3.979074   -3.015197   -0.414235
     15          1           0        6.070411   -1.109859   -1.325190
     16          1           0        5.553615   -2.345406   -0.158628
     17          1           0        5.864055   -0.671038    0.383871
     18          1           0        3.450723   -0.591959    1.583410
     19          1           0        3.279102   -2.289505    1.068683
     20          1           0        0.880928   -2.091679   -0.867461
     21          1           0       -0.271783   -2.037427    0.487010
     22          1           0        1.115686   -3.148358    0.534681
     23          1           0        1.600578    0.757436    1.746249
     24          1           0       -0.023908    0.079723    1.481417
     25          1           0        0.141906    0.406508   -0.939925
     26          1           0        1.779782    1.124796   -0.765060
     27          1           0       -0.181020    2.610729    1.284380
     28          1           0        2.000189    3.636111   -0.976201
     29          1           0        2.329471    3.149141    0.711896
     30          1           0        1.312929    4.581372    0.364560
     31          1           0       -4.054240    1.478038    0.708971
     32          1           0       -2.928684   -0.573885   -1.732688
     33          1           0       -4.583069   -0.252207   -1.180673
     34          1           0       -3.898641   -3.857888    0.276921
     35          1           0       -3.396236   -3.239105   -1.312205
     36          1           0       -5.029671   -2.882761   -0.687018
 ---------------------------------------------------------------------

 SCF Done:  E(RB3LYP) =  -1983.97173781     A.U. after    1 cycles

 The electronic state is 1-A.
 Alpha  occ. eigenvalues --  -88.97815 -88.86294 -88.84153 -77.05069 -19.05428
 Alpha  occ. eigenvalues --  -14.34281 -10.24538 -10.23286 -10.22743 -10.22402
 Alpha  occ. eigenvalues --  -10.21502 -10.20308 -10.18839 -10.17515  -8.03189
 Alpha  occ. eigenvalues --   -7.92711  -7.90403  -6.51597  -5.99530  -5.99411
 Alpha  occ. eigenvalues --   -5.98970  -5.89172  -5.88853  -5.88231  -5.86905
 Alpha  occ. eigenvalues --   -5.86540  -5.85922  -4.67905  -4.67854  -4.67411
 Alpha  occ. eigenvalues --   -0.94401  -0.90796  -0.85168  -0.78660  -0.76487
 Alpha  occ. eigenvalues --   -0.75722  -0.71523  -0.69960  -0.67997  -0.65983
 Alpha  occ. eigenvalues --   -0.62147  -0.58238  -0.57917  -0.51778  -0.50177
 Alpha  occ. eigenvalues --   -0.49655  -0.48830  -0.46385  -0.45747  -0.44556
 Alpha  occ. eigenvalues --   -0.43242  -0.42697  -0.42410  -0.41593  -0.40826
 Alpha  occ. eigenvalues --   -0.40472  -0.39812  -0.39098  -0.38800  -0.38291
 Alpha  occ. eigenvalues --   -0.38098  -0.37402  -0.36658  -0.34962  -0.32881
 Alpha  occ. eigenvalues --   -0.32325  -0.31994  -0.28379  -0.26333  -0.22620
 Alpha  occ. eigenvalues --   -0.22295  -0.21887  -0.19590  -0.16552
 Alpha virt. eigenvalues --   -0.00324   0.00961   0.03493   0.05184   0.06448
 Alpha virt. eigenvalues --    0.06726   0.07263   0.08027   0.08428   0.09721
 Alpha virt. eigenvalues --    0.10352   0.11349   0.11713   0.12000   0.12471

 Mulliken charges:
               1
     1  C   -0.377480
     2  S   -0.189128
     3  C   -0.158252
     4  N   -0.029436
     5  C   -0.363194
     6  C   -0.194376
     7  C   -0.201684
     8  S    0.253790
     9  C   -0.455444
    10  P   -0.059156
    11  O   -0.461622
    12  C   -0.205239
    13  S   -0.149923
    14  C   -0.373430
    15  H    0.151427
    16  H    0.141004
    17  H    0.136189
    18  H    0.120097
    19  H    0.126258
    20  H    0.120093
    21  H    0.181940
    22  H    0.119202
    23  H    0.094625
    24  H    0.173743
    25  H    0.169624
    26  H    0.152567
    27  H    0.207680
    28  H    0.158546
    29  H    0.151645
    30  H    0.152252
    31  H   -0.013322
    32  H    0.106924
    33  H    0.116606
    34  H    0.136586
    35  H    0.128250
    36  H    0.132639
 Sum of Mulliken charges =  -0.00000

 Dipole moment (field-independent basis, Debye):
    X=              6.5151    Y=              0.8156    Z=              0.3828  Tot=              6.5771
 Quadrupole moment (field-independent basis, Debye-Ang):
   XX=           -118.2039   YY=           -104.8550   ZZ=           -119.0172
   XY=              9.6477   XZ=              8.0765   YZ=              4.2577

  Exact polarizability: 242.710  14.171 209.043  -3.176   0.192 141.844
 Approx polarizability: 314.881  16.288 296.126 -10.356  -1.118 248.801

                      1                      2                      3
                      A                      A                      A
 Frequencies --     13.2022                22.2030                33.1644
 Red. masses --      4.7509                 3.8664                 4.1958
 Frc consts  --      0.0005                 0.0011                 0.0027
 IR Inten    --      1.4827                 0.1607                 0.9761

                      4                      5                      6
                      A                      A                      A
 Frequencies --     38.4344                50.6751                57.8060
 Red. masses --      3.5643                 4.7298                 4.5684
 Frc consts  --      0.0031                 0.0072                 0.0090
 IR Inten    --      0.7911                 4.5273                 4.4342

                      7                      8                      9
                      A                      A                      A
 Frequencies --     69.2626                78.1256                94.3119
 Red. masses --      4.3925                 5.5654                 3.9083
 Frc consts  --      0.0124                 0.0200                 0.0205
 IR Inten    --      5.4024                 2.8888                 3.4947

                     10                     11                     12
                      A                      A                      A
 Frequencies --    113.3340               137.4146               153.8307
 Red. masses --      2.2620                 2.1291                 1.8626
 Frc consts  --      0.0171                 0.0237                 0.0260
 IR Inten    --      1.1338                 3.1075                 1.7275

                     13                     14                     15
                      A                      A                      A
 Frequencies --    156.7204               168.7235               173.3857
 Red. masses --      1.4904                 2.8344                 2.5014
 Frc consts  --      0.0216                 0.0475                 0.0443
 IR Inten    --      1.9379                 2.0801                 2.1971

                     16                     17                     18
                      A                      A                      A
 Frequencies --    183.4181               194.4597               210.5791
 Red. masses --      2.2872                 1.6441                 1.0753
 Frc consts  --      0.0453                 0.0366                 0.0281
 IR Inten    --     11.0351                 2.6404                 1.4516

                     19                     20                     21
                      A                      A                      A
 Frequencies --    215.5898               233.7256               254.8316
 Red. masses --      1.5842                 3.6753                 2.9077
 Frc consts  --      0.0434                 0.1183                 0.1113
 IR Inten    --      4.2837                 7.0059                16.7911

                     22                     23                     24
                      A                      A                      A
 Frequencies --    268.7730               294.7313               325.0352
 Red. masses --      5.8816                 3.2678                 2.7335
 Frc consts  --      0.2503                 0.1672                 0.1701
 IR Inten    --     68.0005                18.0178                 4.4617

                     25                     26                     27
                      A                      A                      A
 Frequencies --    378.0408               397.0050               458.5923
 Red. masses --      4.7587                 3.5396                 2.5919
 Frc consts  --      0.4007                 0.3287                 0.3212
 IR Inten    --     66.1590                 7.3095                 7.4674

                     28                     29                     30
                      A                      A                      A
 Frequencies --    466.1359               600.6273               609.5006
 Red. masses --      2.6601                 4.5307                 3.6215
 Frc consts  --      0.3405                 0.9630                 0.7927
 IR Inten    --      3.4782               138.0837                 4.2010

                     31                     32                     33
                      A                      A                      A
 Frequencies --    639.5569               694.7739               707.5980
 Red. masses --      5.2637                 2.6872                 3.6983
 Frc consts  --      1.2685                 0.7643                 1.0910
 IR Inten    --     80.9190                 2.5390                15.9512

                     34                     35                     36
                      A                      A                      A
 Frequencies --    713.8553               717.1492               749.2939
 Red. masses --      3.0599                 5.9339                 2.7805
 Frc consts  --      0.9187                 1.7981                 0.9198
 IR Inten    --      2.0095                 7.9913                14.7022

                     37                     38                     39
                      A                      A                      A
 Frequencies --    765.2226               783.7509               836.3492
 Red. masses --      1.1491                 1.2236                 1.6503
 Frc consts  --      0.3965                 0.4428                 0.6801
 IR Inten    --     22.6511                16.1529                39.3539

                     40                     41                     42
                      A                      A                      A
 Frequencies --    859.7765               914.8528               916.8449
 Red. masses --      2.2123                 1.4072                 1.4307
 Frc consts  --      0.9635                 0.6939                 0.7086
 IR Inten    --     35.4715                25.3315                12.2814

                     43                     44                     45
                      A                      A                      A
 Frequencies --    930.2017               931.8663               964.8698
 Red. masses --      2.5538                 1.3965                 1.2465
 Frc consts  --      1.3020                 0.7145                 0.6837
 IR Inten    --    340.1031                18.9228                37.5853

                     46                     47                     48
                      A                      A                      A
 Frequencies --    971.6035               974.2999               977.1461
 Red. masses --      1.2318                 1.3086                 1.3362
 Frc consts  --      0.6851                 0.7319                 0.7517
 IR Inten    --      6.0594                18.5160                 4.3062

                     49                     50                     51
                      A                      A                      A
 Frequencies --    995.0809              1002.0138              1038.2254
 Red. masses --      1.2262                 3.4445                 1.5084
 Frc consts  --      0.7154                 2.0376                 0.9580
 IR Inten    --      1.5887                24.9612                 2.3020

                     52                     53                     54
                      A                      A                      A
 Frequencies --   1064.7676              1095.9324              1108.2082
 Red. masses --      1.3168                 1.8186                 1.0705
 Frc consts  --      0.8796                 1.2869                 0.7746
 IR Inten    --     10.7560                67.1756                 5.4909

                     55                     56                     57
                      A                      A                      A
 Frequencies --   1137.9653              1167.0634              1185.4035
 Red. masses --      1.5629                 1.4140                 1.1819
 Frc consts  --      1.1924                 1.1347                 0.9785
 IR Inten    --     57.8579                 2.7286                27.0872

                     58                     59                     60
                      A                      A                      A
 Frequencies --   1189.1800              1276.1152              1291.2607
 Red. masses --      1.2103                 1.2187                 1.3648
 Frc consts  --      1.0084                 1.1693                 1.3407
 IR Inten    --      8.2668                 3.3234                94.5890

                     61                     62                     63
                      A                      A                      A
 Frequencies --   1303.4367              1329.0087              1345.4008
 Red. masses --      1.2133                 1.1790                 1.1623
 Frc consts  --      1.2145                 1.2269                 1.2396
 IR Inten    --     25.4405                 1.4091                16.8948

                     64                     65                     66
                      A                      A                      A
 Frequencies --   1353.3134              1366.3145              1386.2313
 Red. masses --      1.1701                 2.0585                 1.1994
 Frc consts  --      1.2626                 2.2641                 1.3580
 IR Inten    --      1.7749                42.5902                 9.7124

                     67                     68                     69
                      A                      A                      A
 Frequencies --   1398.6036              1431.0042              1448.6558
 Red. masses --      1.5162                 1.0834                 1.0794
 Frc consts  --      1.7475                 1.3072                 1.3346
 IR Inten    --     23.0004                12.8029                 4.9119

                     70                     71                     72
                      A                      A                      A
 Frequencies --   1463.5862              1466.5935              1468.8124
 Red. masses --      1.1081                 1.0550                 1.0539
 Frc consts  --      1.3986                 1.3369                 1.3396
 IR Inten    --      2.9241                 3.8630                 0.1691

                     73                     74                     75
                      A                      A                      A
 Frequencies --   1468.9531              1469.3728              1477.0392
 Red. masses --      1.0530                 1.0550                 1.1102
 Frc consts  --      1.3388                 1.3421                 1.4271
 IR Inten    --     11.6462                 5.7281                 0.4354

                     76                     77                     78
                      A                      A                      A
 Frequencies --   1480.5420              1483.6475              1490.7524
 Red. masses --      1.0546                 1.0539                 1.0527
 Frc consts  --      1.3621                 1.3668                 1.3784
 IR Inten    --      8.1658                 5.4403                11.0968

                     79                     80                     81
                      A                      A                      A
 Frequencies --   1504.8648              1522.3101              2216.8629
 Red. masses --      1.1285                 1.0679                 1.0392
 Frc consts  --      1.5058                 1.4580                 3.0090
 IR Inten    --      2.7008                27.4295               228.1553

                     82                     83                     84
                      A                      A                      A
 Frequencies --   2670.3072              2983.6495              3014.2755
 Red. masses --      1.0392                 1.0482                 1.0548
 Frc consts  --      4.3659                 5.4980                 5.6467
 IR Inten    --     14.0692                32.1016                27.5824

                     85                     86                     87
                      A                      A                      A
 Frequencies --   3024.4517              3031.1244              3032.4424
 Red. masses --      1.0637                 1.0299                 1.0540
 Frc consts  --      5.7330                 5.5751                 5.7108
 IR Inten    --     16.0376                44.5992                58.5418

                     88                     89                     90
                      A                      A                      A
 Frequencies --   3036.9028              3048.8083              3058.6541
 Red. masses --      1.0331                 1.0293                 1.0855
 Frc consts  --      5.6140                 5.6369                 5.9832
 IR Inten    --     18.5230                 9.4621                31.4191

                     91                     92                     93
                      A                      A                      A
 Frequencies --   3068.1181              3086.3445              3091.2231
 Red. masses --      1.1071                 1.0630                 1.1110
 Frc consts  --      6.1400                 5.9658                 6.2548
 IR Inten    --     14.8981                 2.5524                16.6374

                     94                     95                     96
                      A                      A                      A
 Frequencies --   3109.2326              3109.9954              3112.5433
 Red. masses --      1.1066                 1.1011                 1.0985
 Frc consts  --      6.3030                 6.2746                 6.2703
 IR Inten    --     14.0913                 8.2836                 0.0950

                     97                     98                     99
                      A                      A                      A
 Frequencies --   3113.7631              3126.4053              3140.9653
 Red. masses --      1.1068                 1.1029                 1.1021
 Frc consts  --      6.3224                 6.3515                 6.4059
 IR Inten    --      8.3796                10.9175                 4.7947

                    100                    101                    102
                      A                      A                      A
 Frequencies --   3146.5756              3151.3373              3178.9292
 Red. masses --      1.1055                 1.1059                 1.1051
 Frc consts  --      6.4492                 6.4709                 6.5801
 IR Inten    --      5.0878                 4.1198                 1.3275

 - Thermochemistry -
 -------------------
 Temperature   298.150 Kelvin.  Pressure   1.00000 Atm.
 Atom     1 has atomic number  6 and mass  12.00000

 Molecular mass:   275.06012 amu.
 Principal axes and moments of inertia in atomic units:
                           1         2         3
     Eigenvalues --  3642.953808547.82158**********
           X            0.99979   0.01920   0.00767
           Y           -0.01929   0.99975   0.01164
           Z           -0.00745  -0.01179   0.99990
 This molecule is an asymmetric top.
 Rotational symmetry number  1.
 Warning -- assumption of classical behavior for rotation
           may cause significant error
 Rotational temperatures (Kelvin)      0.02378     0.01013     0.00759
 Rotational constants (GHZ):           0.49541     0.21113     0.15809
 Zero-point vibrational energy     779147.1 (Joules/Mol)
                                  186.22062 (Kcal/Mol)
 Warning -- explicit consideration of  30 degrees of freedom as
           vibrations may cause significant error
 Vibrational temperatures:     19.00    31.95    47.72    55.30    72.91
          (Kelvin)             83.17    99.65   112.41   135.69   163.06
                              197.71   221.33   225.49   242.76   249.46
                              263.90   279.78   302.98   310.19   336.28
                              366.65   386.70   424.05   467.65   543.92
                              571.20   659.81   670.67   864.17   876.94
                              920.18   999.62  1018.08  1027.08  1031.82
                             1078.07  1100.98  1127.64  1203.32  1237.03
                             1316.27  1319.14  1338.35  1340.75  1388.23
                             1397.92  1401.80  1405.90  1431.70  1441.67
                             1493.77  1531.96  1576.80  1594.46  1637.28
                             1679.14  1705.53  1710.96  1836.05  1857.84
                             1875.35  1912.15  1935.73  1947.12  1965.82
                             1994.48  2012.28  2058.90  2084.29  2105.77
                             2110.10  2113.29  2113.50  2114.10  2125.13
                             2130.17  2134.64  2144.86  2165.16  2190.26
                             3189.57  3841.98  4292.81  4336.87  4351.51
                             4361.11  4363.01  4369.43  4386.56  4400.72
                             4414.34  4440.56  4447.58  4473.49  4474.59
                             4478.26  4480.01  4498.20  4519.15  4527.22
                             4534.07  4573.77

 Zero-point correction=                           0.296761 (Hartree/Particle)
 Thermal correction to Energy=                    0.318686
 Thermal correction to Enthalpy=                  0.319630
 Thermal correction to Gibbs Free Energy=         0.241548
 Sum of electronic and zero-point Energies=          -1983.674976
 Sum of electronic and thermal Energies=             -1983.653052
 Sum of electronic and thermal Enthalpies=           -1983.652108
 Sum of electronic and thermal Free Energies=        -1983.730190

                     E (Thermal)             CV                S
                      KCal/Mol        Cal/Mol-Kelvin    Cal/Mol-Kelvin
 Total                  199.979             74.888            164.339
 Electronic               0.000              0.000              0.000
 Translational            0.889              2.981             42.734
 Rotational               0.889              2.981             34.229
 Vibrational            198.201             68.926             87.375
 Vibration     1          0.593              1.987              7.459
 Vibration     2          0.593              1.985              6.427
 Vibration     3          0.594              1.983              5.631
 Vibration     4          0.594              1.982              5.338
 Vibration     5          0.595              1.977              4.791
 Vibration     6          0.596              1.974              4.531
 Vibration     7          0.598              1.969              4.174
 Vibration     8          0.599              1.964              3.937
 Vibration     9          0.603              1.953              3.569
 Vibration    10          0.607              1.938              3.211
 Vibration    11          0.614              1.916              2.840
 Vibration    12          0.619              1.898              2.624
 Vibration    13          0.620              1.895              2.589
 Vibration    14          0.625              1.881              2.450
 Vibration    15          0.627              1.875              2.398
 Vibration    16          0.631              1.862              2.293
 Vibration    17          0.635              1.848              2.185
 Vibration    18          0.643              1.825              2.039
 Vibration    19          0.645              1.817              1.996
 Vibration    20          0.654              1.789              1.850
 Vibration    21          0.665              1.755              1.697
 Vibration    22          0.673              1.731              1.604
 Vibration    23          0.689              1.684              1.447
 Vibration    24          0.709              1.625              1.285
 Vibration    25          0.748              1.517              1.047
 Vibration    26          0.764              1.477              0.974
 Vibration    27          0.817              1.342              0.770
 Vibration    28          0.823              1.325              0.748
 Vibration    29          0.959              1.030              0.449
 Vibration    30          0.968              1.012              0.434

                           ! Non-Optimized Parameters !
 Normal termination of Gaussian 16 at Sun May 28 13:58:34 2023.
