 Gaussian 16, Revision A.03,
 Gaussian 16:  ES64L-G16RevA.03 25-Dec-2016

 -----------------------------
 # opt freq b3lyp/6-31g(2df,p)
 -----------------------------

 -------------------
 Title Card Required
 -------------------
 Symbolic Z-matrix:
 Charge =  0 Multiplicity = 1

 SCF Done:  E(RB3LYP) =  -954.309017362     A.U. after   14 cycles
 SCF Done:  E(RB3LYP) =  -954.319197021     A.U. after   12 cycles
 SCF Done:  E(RB3LYP) =  -954.325099464     A.U. after   12 cycles
 SCF Done:  E(RB3LYP) =  -954.328650473     A.U. after   12 cycles
 SCF Done:  E(RB3LYP) =  -954.329482757     A.U. after   11 cycles
 SCF Done:  E(RB3LYP) =  -954.330489363     A.U. after   11 cycles
 SCF Done:  E(RB3LYP) =  -954.331125550     A.U. after   13 cycles
 SCF Done:  E(RB3LYP) =  -954.331684126     A.U. after   12 cycles
 SCF Done:  E(RB3LYP) =  -954.331903880     A.U. after   10 cycles
 SCF Done:  E(RB3LYP) =  -954.332087694     A.U. after   10 cycles
 SCF Done:  E(RB3LYP) =  -954.332176593     A.U. after   10 cycles
 SCF Done:  E(RB3LYP) =  -954.332182619     A.U. after    8 cycles
 SCF Done:  E(RB3LYP) =  -954.332183593     A.U. after    7 cycles
 SCF Done:  E(RB3LYP) =  -954.332185748     A.U. after    9 cycles
 SCF Done:  E(RB3LYP) =  -954.332185897     A.U. after    7 cycles
 SCF Done:  E(RB3LYP) =  -954.332186106     A.U. after    7 cycles
 Optimization completed.
    -- Stationary point found.
 Normal termination of Gaussian 16 at Sun May 28 19:32:28 2023.

 ----------------------------------------------------------------------
 #N Geom=AllCheck Guess=TCheck SCRF=Check GenChk RB3LYP/6-31G(2df,p) Fr
 eq
 ----------------------------------------------------------------------

 Structure from the checkpoint file:  "CSCqCdCCCOrNqOrCO.chk"
 -------------------
 Title Card Required
 -------------------
 Charge =  0 Multiplicity = 1

                         Standard orientation:
 ---------------------------------------------------------------------
 Center     Atomic      Atomic             Coordinates (Angstroms)
 Number     Number       Type             X           Y           Z
 ---------------------------------------------------------------------
      1          6           0       -0.143959    2.926907    0.359786
      2         16           0        1.061214    1.983121   -0.618655
      3          6           0        0.917723    0.334116    0.232474
      4          6           0       -0.329091   -0.341941   -0.240344
      5          6           0       -1.407634   -0.543897    0.519647
      6          6           0       -2.700969   -1.139912    0.047412
      7          6           0       -3.873675   -0.146755    0.130442
      8          8           0       -5.118914   -0.742711   -0.184828
      9          7           0        2.138355   -0.398014   -0.117832
     10          8           0        3.207957    0.195441    0.629449
     11          6           0        2.138301   -1.813711    0.240605
     12          8           0        3.212363   -2.479706   -0.362649
     13          1           0       -0.221497    3.912321   -0.103494
     14          1           0        0.189939    3.044886    1.393700
     15          1           0       -1.124689    2.444552    0.335662
     16          1           0        0.876332    0.531420    1.312803
     17          1           0       -0.339166   -0.620232   -1.292834
     18          1           0       -1.373065   -0.247514    1.568461
     19          1           0       -2.964905   -2.011729    0.660114
     20          1           0       -2.596277   -1.491857   -0.986933
     21          1           0       -3.665236    0.724295   -0.510227
     22          1           0       -3.973164    0.223606    1.156745
     23          1           0       -5.096080   -1.004079   -1.110861
     24          1           0        3.750910    0.616297   -0.045679
     25          1           0        1.166554   -2.224068   -0.061225
     26          1           0        2.266921   -1.948632    1.322834
     27          1           0        3.140086   -2.326134   -1.311673
 ---------------------------------------------------------------------

 SCF Done:  E(RB3LYP) =  -954.332186106     A.U. after    1 cycles

 The electronic state is 1-A.
 Alpha  occ. eigenvalues --  -88.86658 -19.16383 -19.13996 -19.13802 -14.38052
 Alpha  occ. eigenvalues --  -10.25327 -10.24865 -10.23445 -10.20939 -10.19882
 Alpha  occ. eigenvalues --  -10.19724 -10.19416  -7.92989  -5.89467  -5.89145
 Alpha  occ. eigenvalues --   -5.88496  -1.06999  -1.02143  -1.02067  -0.87099
 Alpha  occ. eigenvalues --   -0.80958  -0.78190  -0.73889  -0.69459  -0.64234
 Alpha  occ. eigenvalues --   -0.62762  -0.58862  -0.56919  -0.53611  -0.51041
 Alpha  occ. eigenvalues --   -0.50710  -0.48955  -0.46757  -0.44662  -0.44197
 Alpha  occ. eigenvalues --   -0.43163  -0.42321  -0.41887  -0.40838  -0.39957
 Alpha  occ. eigenvalues --   -0.38819  -0.37799  -0.35735  -0.34115  -0.32958
 Alpha  occ. eigenvalues --   -0.32166  -0.29725  -0.29041  -0.27594  -0.25372
 Alpha  occ. eigenvalues --   -0.24366  -0.21987
 Alpha virt. eigenvalues --   -0.00616   0.03922   0.07086   0.07221   0.08454
 Alpha virt. eigenvalues --    0.08901   0.09520   0.10559   0.11380   0.12441
 Alpha virt. eigenvalues --    0.13034   0.14072   0.14833   0.15491   0.16492

 Mulliken charges:
               1
     1  C   -0.385487
     2  S   -0.150080
     3  C    0.050518
     4  C   -0.075694
     5  C   -0.061203
     6  C   -0.258979
     7  C   -0.052178
     8  O   -0.412951
     9  N   -0.086113
    10  O   -0.400058
    11  C    0.018548
    12  O   -0.407289
    13  H    0.149162
    14  H    0.142456
    15  H    0.141463
    16  H    0.100558
    17  H    0.101610
    18  H    0.089706
    19  H    0.118376
    20  H    0.091003
    21  H    0.095638
    22  H    0.112871
    23  H    0.283266
    24  H    0.307341
    25  H    0.099637
    26  H    0.110041
    27  H    0.277836
 Sum of Mulliken charges =  -0.00000

 Dipole moment (field-independent basis, Debye):
    X=             -1.2953    Y=              0.4613    Z=             -1.1466  Tot=              1.7903
 Quadrupole moment (field-independent basis, Debye-Ang):
   XX=            -92.9163   YY=            -80.3010   ZZ=            -75.5078
   XY=              2.7567   XZ=              0.3121   YZ=              5.4208

  Exact polarizability: 145.195   4.999 122.469  -7.425   0.077  95.485
 Approx polarizability: 192.669  10.271 171.706 -18.363  -2.648 160.459

                      1                      2                      3
                      A                      A                      A
 Frequencies --     38.0331                52.2357                59.9024
 Red. masses --      4.3879                 3.9921                 4.0832
 Frc consts  --      0.0037                 0.0064                 0.0086
 IR Inten    --      1.3354                 0.6602                 0.5440

                      4                      5                      6
                      A                      A                      A
 Frequencies --     65.8036                89.9874               104.5193
 Red. masses --      3.3972                 2.1153                 3.3446
 Frc consts  --      0.0087                 0.0101                 0.0215
 IR Inten    --      2.5080                 6.6395                 7.5143

                      7                      8                      9
                      A                      A                      A
 Frequencies --    116.3788               148.1019               166.9682
 Red. masses --      3.7850                 3.5768                 1.2069
 Frc consts  --      0.0302                 0.0462                 0.0198
 IR Inten    --      3.4787                 3.1718                 3.7365

                     10                     11                     12
                      A                      A                      A
 Frequencies --    188.7798               209.2450               254.2700
 Red. masses --      1.2140                 2.5303                 2.9421
 Frc consts  --      0.0255                 0.0653                 0.1121
 IR Inten    --     80.7364                26.1717                 3.0312

                     13                     14                     15
                      A                      A                      A
 Frequencies --    280.3780               289.7473               302.9284
 Red. masses --      1.8390                 2.7740                 4.7208
 Frc consts  --      0.0852                 0.1372                 0.2552
 IR Inten    --     28.2266                 5.1951                 5.1968

                     16                     17                     18
                      A                      A                      A
 Frequencies --    316.3897               336.5138               366.6810
 Red. masses --      1.6530                 1.8262                 2.3925
 Frc consts  --      0.0975                 0.1218                 0.1895
 IR Inten    --     65.0767                67.0903                24.8136

                     19                     20                     21
                      A                      A                      A
 Frequencies --    391.8279               428.9866               494.4675
 Red. masses --      4.5047                 2.6939                 4.6392
 Frc consts  --      0.4075                 0.2921                 0.6683
 IR Inten    --     11.9008                22.9219                 5.9363

                     22                     23                     24
                      A                      A                      A
 Frequencies --    552.3880               634.1743               718.9847
 Red. masses --      2.9956                 4.0155                 5.7229
 Frc consts  --      0.5385                 0.9515                 1.7430
 IR Inten    --     12.8338                17.7006                 0.8094

                     25                     26                     27
                      A                      A                      A
 Frequencies --    739.9724               790.2585               854.9519
 Red. masses --      3.7458                 1.1706                 2.9364
 Frc consts  --      1.2084                 0.4307                 1.2646
 IR Inten    --     20.3683                 3.4981                19.0573

                     28                     29                     30
                      A                      A                      A
 Frequencies --    878.0764               969.4404               971.9665
 Red. masses --      2.7716                 1.6742                 1.2175
 Frc consts  --      1.2590                 0.9271                 0.6777
 IR Inten    --     11.5818                12.5977                 4.8206

                     31                     32                     33
                      A                      A                      A
 Frequencies --    984.1629              1000.5689              1017.0016
 Red. masses --      1.9656                 1.7581                 1.2350
 Frc consts  --      1.1217                 1.0370                 0.7526
 IR Inten    --      7.9089                19.7701                21.0409

                     34                     35                     36
                      A                      A                      A
 Frequencies --   1035.3375              1072.1452              1077.7029
 Red. masses --      2.5152                 3.5469                 2.8298
 Frc consts  --      1.5885                 2.4022                 1.9364
 IR Inten    --      2.8241               236.7268                66.5301

                     37                     38                     39
                      A                      A                      A
 Frequencies --   1095.1392              1108.3997              1129.8382
 Red. masses --      2.8283                 4.5913                 1.7869
 Frc consts  --      1.9986                 3.3234                 1.3439
 IR Inten    --     12.0357                38.1495                 8.7484

                     40                     41                     42
                      A                      A                      A
 Frequencies --   1146.1852              1180.7789              1227.6982
 Red. masses --      3.1289                 1.7027                 1.2572
 Frc consts  --      2.4218                 1.3987                 1.1165
 IR Inten    --     63.5673                20.6665                21.3392

                     43                     44                     45
                      A                      A                      A
 Frequencies --   1262.3039              1279.3915              1289.4524
 Red. masses --      1.2165                 1.2771                 1.2768
 Frc consts  --      1.1421                 1.2316                 1.2508
 IR Inten    --      6.4893                10.1403                25.3362

                     46                     47                     48
                      A                      A                      A
 Frequencies --   1311.7958              1328.7360              1347.3063
 Red. masses --      1.2158                 1.2561                 1.1601
 Frc consts  --      1.2326                 1.3066                 1.2407
 IR Inten    --      1.4265                 4.0775                 1.2272

                     49                     50                     51
                      A                      A                      A
 Frequencies --   1364.9636              1389.8992              1395.0672
 Red. masses --      1.2954                 1.2370                 1.2057
 Frc consts  --      1.4220                 1.4080                 1.3826
 IR Inten    --      7.8323                36.9157                29.1590

                     52                     53                     54
                      A                      A                      A
 Frequencies --   1397.5066              1417.3589              1441.0187
 Red. masses --      1.2938                 1.2296                 1.2320
 Frc consts  --      1.4888                 1.4554                 1.5074
 IR Inten    --      3.3957                58.9205                65.9767

                     55                     56                     57
                      A                      A                      A
 Frequencies --   1465.2647              1480.3665              1484.8107
 Red. masses --      1.0522                 1.0965                 1.0537
 Frc consts  --      1.3310                 1.4158                 1.3687
 IR Inten    --      4.2567                 3.2580                 9.6701

                     58                     59                     60
                      A                      A                      A
 Frequencies --   1497.7504              1510.8776              1720.2823
 Red. masses --      1.0910                 1.0906                 6.2450
 Frc consts  --      1.4420                 1.4668                10.8888
 IR Inten    --      1.5033                 0.2663                 3.1000

                     61                     62                     63
                      A                      A                      A
 Frequencies --   2983.0714              3001.5456              3010.9253
 Red. masses --      1.0688                 1.0825                 1.0554
 Frc consts  --      5.6034                 5.7463                 5.6371
 IR Inten    --     39.3558                11.7778                52.6983

                     64                     65                     66
                      A                      A                      A
 Frequencies --   3015.8416              3038.7834              3052.4510
 Red. masses --      1.0582                 1.0301                 1.0967
 Frc consts  --      5.6709                 5.6043                 6.0205
 IR Inten    --     31.0689                21.4977                 4.5167

                     67                     68                     69
                      A                      A                      A
 Frequencies --   3058.4569              3075.2865              3120.5612
 Red. masses --      1.1083                 1.0999                 1.1065
 Frc consts  --      6.1084                 6.1287                 6.3482
 IR Inten    --     42.0283                41.2528                12.5683

                     70                     71                     72
                      A                      A                      A
 Frequencies --   3124.9952              3141.6116              3146.8357
 Red. masses --      1.0891                 1.1023                 1.0877
 Frc consts  --      6.2663                 6.4098                 6.3463
 IR Inten    --     13.4466                 3.8436                10.3750

                     73                     74                     75
                      A                      A                      A
 Frequencies --   3797.7592              3814.3746              3816.1482
 Red. masses --      1.0653                 1.0681                 1.0662
 Frc consts  --      9.0530                 9.1564                 9.1480
 IR Inten    --     15.7751                54.9300                19.4599

 - Thermochemistry -
 -------------------
 Temperature   298.150 Kelvin.  Pressure   1.00000 Atm.
 Atom     1 has atomic number  6 and mass  12.00000

 Molecular mass:   193.07727 amu.
 Principal axes and moments of inertia in atomic units:
                           1         2         3
     Eigenvalues --  1780.028704843.789816309.00218
           X            0.99999  -0.00298   0.00106
           Y            0.00296   0.99983   0.01806
           Z           -0.00111  -0.01805   0.99984
 This molecule is an asymmetric top.
 Rotational symmetry number  1.
 Warning -- assumption of classical behavior for rotation
           may cause significant error
 Rotational temperatures (Kelvin)      0.04866     0.01788     0.01373
 Rotational constants (GHZ):           1.01388     0.37259     0.28606
 Zero-point vibrational energy     588982.1 (Joules/Mol)
                                  140.77010 (Kcal/Mol)
 Warning -- explicit consideration of  22 degrees of freedom as
           vibrations may cause significant error
 Vibrational temperatures:     54.72    75.16    86.19    94.68   129.47
          (Kelvin)            150.38   167.44   213.09   240.23   271.61
                              301.06   365.84   403.40   416.88   435.85
                              455.21   484.17   527.57   563.75   617.22
                              711.43   794.76   912.44  1034.46  1064.66
                             1137.01  1230.09  1263.36  1394.81  1398.44
                             1415.99  1439.60  1463.24  1489.62  1542.58
                             1550.57  1575.66  1594.74  1625.59  1649.10
                             1698.88  1766.38  1816.17  1840.76  1855.23
                             1887.38  1911.75  1938.47  1963.88  1999.75
                             2007.19  2010.70  2039.26  2073.30  2108.19
                             2129.92  2136.31  2154.93  2173.82  2475.10
                             4291.97  4318.55  4332.05  4339.12  4372.13
                             4391.80  4400.44  4424.65  4489.79  4496.17
                             4520.08  4527.59  5464.13  5488.03  5490.59

 Zero-point correction=                           0.224331 (Hartree/Particle)
 Thermal correction to Energy=                    0.240045
 Thermal correction to Enthalpy=                  0.240989
 Thermal correction to Gibbs Free Energy=         0.180090
 Sum of electronic and zero-point Energies=           -954.107855
 Sum of electronic and thermal Energies=              -954.092141
 Sum of electronic and thermal Enthalpies=            -954.091197
 Sum of electronic and thermal Free Energies=         -954.152096

                     E (Thermal)             CV                S
                      KCal/Mol        Cal/Mol-Kelvin    Cal/Mol-Kelvin
 Total                  150.631             54.646            128.174
 Electronic               0.000              0.000              0.000
 Translational            0.889              2.981             41.679
 Rotational               0.889              2.981             32.364
 Vibrational            148.853             48.685             54.131
 Vibration     1          0.594              1.982              5.359
 Vibration     2          0.596              1.977              4.731
 Vibration     3          0.597              1.973              4.460
 Vibration     4          0.597              1.971              4.275
 Vibration     5          0.602              1.956              3.660
 Vibration     6          0.605              1.946              3.368
 Vibration     7          0.608              1.936              3.160
 Vibration     8          0.617              1.905              2.696
 Vibration     9          0.624              1.883              2.469
 Vibration    10          0.633              1.855              2.240
 Vibration    11          0.642              1.827              2.050
 Vibration    12          0.665              1.756              1.701
 Vibration    13          0.680              1.710              1.531
 Vibration    14          0.686              1.693              1.475
 Vibration    15          0.694              1.668              1.401
 Vibration    16          0.703              1.642              1.329
 Vibration    17          0.717              1.603              1.229
 Vibration    18          0.740              1.541              1.094
 Vibration    19          0.759              1.488              0.993
 Vibration    20          0.790              1.407              0.862
 Vibration    21          0.850              1.262              0.672
 Vibration    22          0.908              1.134              0.539

 Optimization completed.
    -- Stationary point found.
 Normal termination of Gaussian 16 at Sun May 28 20:32:39 2023.
