 Gaussian 16, Revision A.03,
 Gaussian 16:  ES64L-G16RevA.03 25-Dec-2016

 -----------------------------
 # opt freq b3lyp/6-31g(2df,p)
 -----------------------------

 -------------------
 Title Card Required
 -------------------
 Symbolic Z-matrix:
 Charge =  0 Multiplicity = 1

 SCF Done:  E(RB3LYP) =  -2106.22218317     A.U. after   32 cycles
 SCF Done:  E(RB3LYP) =  -2106.26953099     A.U. after   19 cycles
 SCF Done:  E(RB3LYP) =  -2106.30018381     A.U. after   18 cycles
 SCF Done:  E(RB3LYP) =  -2106.33709888     A.U. after   16 cycles
 SCF Done:  E(RB3LYP) =  -2106.37391882     A.U. after   16 cycles
 SCF Done:  E(RB3LYP) =  -2106.38789564     A.U. after   15 cycles
 SCF Done:  E(RB3LYP) =  -2106.40431360     A.U. after   17 cycles
 SCF Done:  E(RB3LYP) =  -2106.41243212     A.U. after   15 cycles
 SCF Done:  E(RB3LYP) =  -2106.41960713     A.U. after   15 cycles
 SCF Done:  E(RB3LYP) =  -2106.42435336     A.U. after   15 cycles
 SCF Done:  E(RB3LYP) =  -2106.45811493     A.U. after   13 cycles
 SCF Done:  E(RB3LYP) =  -2106.45814353     A.U. after   13 cycles
 SCF Done:  E(RB3LYP) =  -2106.45817112     A.U. after   13 cycles
 SCF Done:  E(RB3LYP) =  -2106.45819188     A.U. after   14 cycles
 SCF Done:  E(RB3LYP) =  -2106.45819945     A.U. after   12 cycles
 SCF Done:  E(RB3LYP) =  -2106.45820265     A.U. after   10 cycles
 SCF Done:  E(RB3LYP) =  -2106.45820314     A.U. after    8 cycles
 SCF Done:  E(RB3LYP) =  -2106.45820329     A.U. after    8 cycles
 SCF Done:  E(RB3LYP) =  -2106.45820331     A.U. after    8 cycles
 Optimization completed.
    -- Stationary point found.
 Normal termination of Gaussian 16 at Sun May 28 00:47:23 2023.

 ----------------------------------------------------------------------
 #N Geom=AllCheck Guess=TCheck SCRF=Check GenChk RB3LYP/6-31G(2df,p) Fr
 eq
 ----------------------------------------------------------------------

 Structure from the checkpoint file:  "CSNC1dCCdCC2dCCdCNdNSS[SH]21.chk"
 -------------------
 Title Card Required
 -------------------
 Charge =  0 Multiplicity = 1

                         Standard orientation:
 ---------------------------------------------------------------------
 Center     Atomic      Atomic             Coordinates (Angstroms)
 Number     Number       Type             X           Y           Z
 ---------------------------------------------------------------------
      1          6           0       -1.929050   -3.669859    0.057048
      2         16           0       -3.018559   -2.509397    0.931586
      3          7           0       -3.561938   -1.522467   -0.398788
      4          6           0       -3.326026   -0.136416   -0.327630
      5          6           0       -4.233773    0.858707   -0.165101
      6          6           0       -3.940347    2.253748   -0.149276
      7          6           0       -2.655385    2.717305   -0.036409
      8          6           0       -1.486223    1.923796   -0.065370
      9          6           0       -0.186085    2.365315    0.253953
     10          6           0        1.005460    1.685289    0.179820
     11          6           0        2.226913    2.287500    0.548916
     12          7           0        3.441914    1.762515    0.536373
     13          7           0        3.460222    0.489750    0.106445
     14         16           0        4.965043   -0.102933    0.126826
     15         16           0        4.974162   -1.943361   -0.503392
     16         16           0       -1.636943    0.277620   -0.675460
     17          1           0       -1.563252   -4.361320    0.821642
     18          1           0       -1.080090   -3.152407   -0.392652
     19          1           0       -2.482396   -4.230580   -0.697990
     20          1           0       -4.528299   -1.722315   -0.628794
     21          1           0       -5.263196    0.550771    0.008008
     22          1           0       -4.766669    2.950176   -0.092894
     23          1           0       -2.495432    3.777101    0.148360
     24          1           0       -0.150698    3.398546    0.601888
     25          1           0        1.048462    0.655683   -0.158485
     26          1           0        2.203588    3.321969    0.891317
     27          1           0       -1.695544    0.440620   -2.057267
 ---------------------------------------------------------------------

 SCF Done:  E(RB3LYP) =  -2106.45820331     A.U. after    1 cycles

 The electronic state is 1-A.
 Alpha  occ. eigenvalues --  -88.99727 -88.94456 -88.91653 -88.83573 -14.39111
 Alpha  occ. eigenvalues --  -14.36910 -14.34609 -10.27251 -10.23499 -10.22796
 Alpha  occ. eigenvalues --  -10.22400 -10.22343 -10.22288 -10.22073 -10.20057
 Alpha  occ. eigenvalues --  -10.18839  -8.05459  -7.99982  -7.97600  -7.90235
 Alpha  occ. eigenvalues --   -6.01760  -6.01698  -6.01230  -5.96287  -5.96036
 Alpha  occ. eigenvalues --   -5.95922  -5.94220  -5.93736  -5.93047  -5.86735
 Alpha  occ. eigenvalues --   -5.86164  -5.85837  -0.99991  -0.96778  -0.89804
 Alpha  occ. eigenvalues --   -0.84968  -0.82007  -0.80910  -0.78534  -0.75941
 Alpha  occ. eigenvalues --   -0.72626  -0.68313  -0.65838  -0.63046  -0.61070
 Alpha  occ. eigenvalues --   -0.59018  -0.55739  -0.53825  -0.52834  -0.50124
 Alpha  occ. eigenvalues --   -0.48568  -0.48407  -0.47493  -0.45914  -0.44351
 Alpha  occ. eigenvalues --   -0.43978  -0.42957  -0.42164  -0.41019  -0.40131
 Alpha  occ. eigenvalues --   -0.39098  -0.38604  -0.37494  -0.37095  -0.34974
 Alpha  occ. eigenvalues --   -0.34421  -0.32080  -0.31853  -0.29651  -0.26356
 Alpha  occ. eigenvalues --   -0.25291  -0.23219  -0.21703  -0.21534  -0.17798
 Alpha virt. eigenvalues --   -0.10235  -0.06203  -0.03019  -0.01074  -0.00198
 Alpha virt. eigenvalues --    0.00981   0.03356   0.03677   0.04934   0.06590
 Alpha virt. eigenvalues --    0.07366   0.08016   0.09334   0.09736   0.10275

 Mulliken charges:
               1
     1  C   -0.370047
     2  S   -0.053320
     3  N   -0.400834
     4  C    0.187766
     5  C   -0.147207
     6  C   -0.131525
     7  C   -0.129267
     8  C    0.076128
     9  C   -0.110129
    10  C   -0.175561
    11  C    0.066142
    12  N   -0.216054
    13  N   -0.130964
    14  S    0.215825
    15  S   -0.326034
    16  S    0.099087
    17  H    0.158193
    18  H    0.160776
    19  H    0.148235
    20  H    0.265518
    21  H    0.113343
    22  H    0.101478
    23  H    0.112506
    24  H    0.107965
    25  H    0.124182
    26  H    0.106881
    27  H    0.146916
 Sum of Mulliken charges =  -0.00000

 Dipole moment (field-independent basis, Debye):
    X=            -10.0992    Y=              1.3869    Z=             -1.5162  Tot=             10.3061
 Quadrupole moment (field-independent basis, Debye-Ang):
   XX=           -136.4285   YY=           -111.8110   ZZ=           -122.4786
   XY=              7.1839   XZ=              7.1044   YZ=              1.2598

  Exact polarizability: 543.777 -82.267 281.830   1.425  19.720 115.901
 Approx polarizability:1096.314-281.537 601.919  -0.449  68.785 214.333

                      1                      2                      3
                      A                      A                      A
 Frequencies --     18.6689                26.4682                35.2646
 Red. masses --      8.9441                 7.5083                 7.9358
 Frc consts  --      0.0018                 0.0031                 0.0058
 IR Inten    --      0.1811                 0.7970                 1.9550

                      4                      5                      6
                      A                      A                      A
 Frequencies --     50.5939                57.7003                61.5395
 Red. masses --      4.2483                 8.6332                 4.8235
 Frc consts  --      0.0064                 0.0169                 0.0108
 IR Inten    --      3.4995                 1.0272                 0.5317

                      7                      8                      9
                      A                      A                      A
 Frequencies --     91.0324               111.4911               138.3031
 Red. masses --      6.6394                 8.3945                 3.2059
 Frc consts  --      0.0324                 0.0615                 0.0361
 IR Inten    --      1.9828                 0.4145                 2.2878

                     10                     11                     12
                      A                      A                      A
 Frequencies --    163.1680               185.0347               202.6767
 Red. masses --      1.3320                 3.6426                 4.5196
 Frc consts  --      0.0209                 0.0735                 0.1094
 IR Inten    --      1.2436                 0.9084                 2.7845

                     13                     14                     15
                      A                      A                      A
 Frequencies --    210.6992               244.8921               253.9295
 Red. masses --      6.8746                 4.6071                 6.0197
 Frc consts  --      0.1798                 0.1628                 0.2287
 IR Inten    --     17.3547                 6.3298                 4.2656

                     16                     17                     18
                      A                      A                      A
 Frequencies --    294.4942               342.4772               370.6559
 Red. masses --      3.1250                 4.0754                 6.5910
 Frc consts  --      0.1597                 0.2816                 0.5335
 IR Inten    --      6.9116                 2.1904                14.4861

                     19                     20                     21
                      A                      A                      A
 Frequencies --    376.1795               398.6371               434.0181
 Red. masses --      4.8781                 4.9792                 5.1837
 Frc consts  --      0.4067                 0.4662                 0.5753
 IR Inten    --     10.4199                 9.7628                21.9726

                     22                     23                     24
                      A                      A                      A
 Frequencies --    477.6759               511.6582               520.8589
 Red. masses --      5.2618                 3.5547                 2.5418
 Frc consts  --      0.7074                 0.5483                 0.4063
 IR Inten    --     54.4562                 1.4921                51.0141

                     25                     26                     27
                      A                      A                      A
 Frequencies --    559.0752               581.1723               605.1339
 Red. masses --      4.1192                 4.7335                 4.6813
 Frc consts  --      0.7586                 0.9420                 1.0100
 IR Inten    --      8.4613                10.8247                40.9275

                     28                     29                     30
                      A                      A                      A
 Frequencies --    629.0076               658.5138               695.7042
 Red. masses --      5.5946                 7.8058                 5.0233
 Frc consts  --      1.3042                 1.9943                 1.4325
 IR Inten    --    177.1959                85.3668                 2.3110

                     31                     32                     33
                      A                      A                      A
 Frequencies --    713.1668               739.1946               803.7774
 Red. masses --      6.2939                 1.3240                 1.4053
 Frc consts  --      1.8861                 0.4262                 0.5349
 IR Inten    --     25.6463                28.0772                95.2439

                     34                     35                     36
                      A                      A                      A
 Frequencies --    827.4030               839.9987               863.4860
 Red. masses --      2.6201                 4.3307                 1.3970
 Frc consts  --      1.0568                 1.8004                 0.6137
 IR Inten    --     27.5624               141.3523                33.3527

                     37                     38                     39
                      A                      A                      A
 Frequencies --    899.3496               920.1661               929.0312
 Red. masses --      1.4440                 1.4073                 1.4402
 Frc consts  --      0.6882                 0.7021                 0.7324
 IR Inten    --     38.3397                15.9377                 1.3459

                     40                     41                     42
                      A                      A                      A
 Frequencies --    943.5310               945.2173               967.5014
 Red. masses --      9.5328                 1.2952                 1.1952
 Frc consts  --      5.0001                 0.6818                 0.6592
 IR Inten    --     26.9069                 4.1092                 0.3115

                     43                     44                     45
                      A                      A                      A
 Frequencies --    974.4515              1010.0623              1048.4692
 Red. masses --      1.3667                 1.1433                 3.1688
 Frc consts  --      0.7646                 0.6872                 2.0524
 IR Inten    --      7.2058                31.6446                74.0888

                     46                     47                     48
                      A                      A                      A
 Frequencies --   1057.6388              1117.9506              1181.2219
 Red. masses --      5.5763                 2.3993                 3.2223
 Frc consts  --      3.6751                 1.7668                 2.6490
 IR Inten    --    448.9489                50.4702                90.6590

                     49                     50                     51
                      A                      A                      A
 Frequencies --   1204.5930              1252.6877              1254.9632
 Red. masses --      1.7329                 1.4525                 2.0269
 Frc consts  --      1.4815                 1.3429                 1.8808
 IR Inten    --    399.7258                65.1438                22.5719

                     52                     53                     54
                      A                      A                      A
 Frequencies --   1283.4806              1296.2320              1327.8227
 Red. masses --      1.3773                 1.8460                 1.7924
 Frc consts  --      1.3368                 1.8275                 1.8619
 IR Inten    --     10.0305               284.6075                54.1070

                     55                     56                     57
                      A                      A                      A
 Frequencies --   1344.6727              1355.5966              1391.6265
 Red. masses --      1.1746                 1.6169                 1.2878
 Frc consts  --      1.2513                 1.7506                 1.4694
 IR Inten    --      2.5457               321.2647                21.2318

                     58                     59                     60
                      A                      A                      A
 Frequencies --   1454.5874              1472.3131              1474.8225
 Red. masses --      1.0527                 2.1829                 1.0700
 Frc consts  --      1.3123                 2.7880                 1.3712
 IR Inten    --      2.9391                88.4482                12.5178

                     61                     62                     63
                      A                      A                      A
 Frequencies --   1519.6749              1562.2058              1615.8656
 Red. masses --      4.9667                 4.5032                 4.4933
 Frc consts  --      6.7580                 6.4751                 6.9123
 IR Inten    --   1307.3667                46.6333               809.9213

                     64                     65                     66
                      A                      A                      A
 Frequencies --   1649.9758              2199.7314              3047.3346
 Red. masses --      5.9213                 1.0451                 1.0289
 Frc consts  --      9.4979                 2.9794                 5.6292
 IR Inten    --     28.0601               226.8409                 8.6086

                     67                     68                     69
                      A                      A                      A
 Frequencies --   3123.0072              3134.3323              3137.2346
 Red. masses --      1.0865                 1.0878                 1.1029
 Frc consts  --      6.2436                 6.2966                 6.3954
 IR Inten    --      6.2464                22.9185                 4.1896

                     70                     71                     72
                      A                      A                      A
 Frequencies --   3148.7555              3149.7298              3156.6472
 Red. masses --      1.1084                 1.0875                 1.0874
 Frc consts  --      6.4746                 6.3568                 6.3838
 IR Inten    --      5.3174                13.8884                 8.3453

                     73                     74                     75
                      A                      A                      A
 Frequencies --   3190.2959              3214.4540              3550.8542
 Red. masses --      1.0870                 1.0920                 1.0750
 Frc consts  --      6.5187                 6.6477                 7.9860
 IR Inten    --      6.2240                 6.1813                40.0345

 - Thermochemistry -
 -------------------
 Temperature   298.150 Kelvin.  Pressure   1.00000 Atm.
 Atom     1 has atomic number  6 and mass  12.00000

 Molecular mass:   288.98358 amu.
 Principal axes and moments of inertia in atomic units:
                           1         2         3
     Eigenvalues --  3932.43810********************
           X            0.99999   0.00372   0.00274
           Y           -0.00373   0.99997   0.00615
           Z           -0.00272  -0.00616   0.99998
 This molecule is an asymmetric top.
 Rotational symmetry number  1.
 Warning -- assumption of classical behavior for rotation
           may cause significant error
 Rotational temperatures (Kelvin)      0.02203     0.00714     0.00557
 Rotational constants (GHZ):           0.45894     0.14882     0.11606
 Zero-point vibrational energy     494068.7 (Joules/Mol)
                                  118.08526 (Kcal/Mol)
 Warning -- explicit consideration of  27 degrees of freedom as
           vibrations may cause significant error
 Vibrational temperatures:     26.86    38.08    50.74    72.79    83.02
          (Kelvin)             88.54   130.98   160.41   198.99   234.76
                              266.22   291.61   303.15   352.35   365.35
                              423.71   492.75   533.29   541.24   573.55
                              624.46   687.27   736.16   749.40   804.38
                              836.18   870.65   905.00   947.45  1000.96
                             1026.09  1063.54  1156.46  1190.45  1208.57
                             1242.36  1293.96  1323.91  1336.67  1357.53
                             1359.96  1392.02  1402.02  1453.25  1508.51
                             1521.71  1608.48  1699.51  1733.14  1802.34
                             1805.61  1846.64  1864.99  1910.44  1934.68
                             1950.40  2002.24  2092.83  2118.33  2121.94
                             2186.47  2247.67  2324.87  2373.95  3164.92
                             4384.43  4493.31  4509.61  4513.78  4530.36
                             4531.76  4541.71  4590.12  4624.88  5108.89

 Zero-point correction=                           0.188181 (Hartree/Particle)
 Thermal correction to Energy=                    0.206244
 Thermal correction to Enthalpy=                  0.207188
 Thermal correction to Gibbs Free Energy=         0.137863
 Sum of electronic and zero-point Energies=          -2106.270022
 Sum of electronic and thermal Energies=             -2106.251959
 Sum of electronic and thermal Enthalpies=           -2106.251015
 Sum of electronic and thermal Free Energies=        -2106.320340

                     E (Thermal)             CV                S
                      KCal/Mol        Cal/Mol-Kelvin    Cal/Mol-Kelvin
 Total                  129.420             63.856            145.907
 Electronic               0.000              0.000              0.000
 Translational            0.889              2.981             42.881
 Rotational               0.889              2.981             34.960
 Vibrational            127.643             57.894             68.066
 Vibration     1          0.593              1.986              6.771
 Vibration     2          0.593              1.985              6.078
 Vibration     3          0.594              1.982              5.509
 Vibration     4          0.595              1.977              4.794
 Vibration     5          0.596              1.974              4.534
 Vibration     6          0.597              1.973              4.407
 Vibration     7          0.602              1.956              3.638
 Vibration     8          0.607              1.940              3.243
 Vibration     9          0.614              1.915              2.827
 Vibration    10          0.623              1.888              2.513
 Vibration    11          0.631              1.860              2.277
 Vibration    12          0.639              1.836              2.109
 Vibration    13          0.643              1.825              2.038
 Vibration    14          0.660              1.771              1.767
 Vibration    15          0.665              1.756              1.703
 Vibration    16          0.689              1.684              1.448
 Vibration    17          0.722              1.591              1.201
 Vibration    18          0.743              1.532              1.077
 Vibration    19          0.747              1.521              1.054
 Vibration    20          0.765              1.473              0.968
 Vibration    21          0.795              1.396              0.846
 Vibration    22          0.834              1.300              0.716
 Vibration    23          0.867              1.224              0.630
 Vibration    24          0.876              1.204              0.608
 Vibration    25          0.915              1.120              0.526
 Vibration    26          0.938              1.072              0.483
 Vibration    27          0.964              1.021              0.441

 Optimization completed.
    -- Stationary point found.
 Normal termination of Gaussian 16 at Sun May 28 02:29:21 2023.
