 Gaussian 16, Revision A.03,
 Gaussian 16:  ES64L-G16RevA.03 25-Dec-2016

 -----------------------------
 # opt freq b3lyp/6-31g(2df,p)
 -----------------------------

 -------------------
 Title Card Required
 -------------------
 Symbolic Z-matrix:
 Charge =  0 Multiplicity = 1

 SCF Done:  E(RB3LYP) =  -979.753601721     A.U. after   14 cycles
 SCF Done:  E(RB3LYP) =  -979.787639062     A.U. after   12 cycles
 SCF Done:  E(RB3LYP) =  -979.789410618     A.U. after   11 cycles
 SCF Done:  E(RB3LYP) =  -979.793672146     A.U. after   12 cycles
 SCF Done:  E(RB3LYP) =  -979.779622921     A.U. after   14 cycles
 SCF Done:  E(RB3LYP) =  -979.792852730     A.U. after   12 cycles
 SCF Done:  E(RB3LYP) =  -979.794511103     A.U. after    9 cycles
 SCF Done:  E(RB3LYP) =  -979.794447181     A.U. after   13 cycles
 SCF Done:  E(RB3LYP) =  -979.795332277     A.U. after   12 cycles
 SCF Done:  E(RB3LYP) =  -979.795591686     A.U. after   11 cycles
 SCF Done:  E(RB3LYP) =  -979.802785738     A.U. after   11 cycles
 SCF Done:  E(RB3LYP) =  -979.802769110     A.U. after   10 cycles
 SCF Done:  E(RB3LYP) =  -979.802814121     A.U. after   10 cycles
 SCF Done:  E(RB3LYP) =  -979.802810980     A.U. after    9 cycles
 SCF Done:  E(RB3LYP) =  -979.802816114     A.U. after    9 cycles
 SCF Done:  E(RB3LYP) =  -979.802809674     A.U. after   10 cycles
 SCF Done:  E(RB3LYP) =  -979.802816721     A.U. after    9 cycles
 SCF Done:  E(RB3LYP) =  -979.802811566     A.U. after   10 cycles
 SCF Done:  E(RB3LYP) =  -979.802816797     A.U. after    9 cycles
 Optimization completed.
    -- Stationary point found.
 Normal termination of Gaussian 16 at Sun May 28 01:42:07 2023.

 ----------------------------------------------------------------------
 #N Geom=AllCheck Guess=TCheck SCRF=Check GenChk RB3LYP/6-31G(2df,p) Fr
 eq
 ----------------------------------------------------------------------

 Structure from the checkpoint file:  "CtCCSCCqCrqOCOCrCqCrC.chk"
 -------------------
 Title Card Required
 -------------------
 Charge =  0 Multiplicity = 1

                         Standard orientation:
 ---------------------------------------------------------------------
 Center     Atomic      Atomic             Coordinates (Angstroms)
 Number     Number       Type             X           Y           Z
 ---------------------------------------------------------------------
      1          6           0        5.450533    1.094257    0.219726
      2          6           0        4.530549    0.321560    0.205647
      3          6           0        3.410127   -0.598791    0.184637
      4         16           0        1.896557    0.266041   -0.424287
      5          6           0        0.710751   -1.133836   -0.341034
      6          6           0       -0.720196   -0.665717    0.012118
      7          6           0       -0.815054   -0.270580    1.489146
      8          8           0       -1.009471    0.423767   -0.906295
      9          6           0       -1.232540    1.714473   -0.462943
     10          8           0       -2.569615    1.848854   -0.015076
     11          6           0       -2.879906    3.173744    0.353331
     12          6           0       -1.735161   -1.783044   -0.382649
     13          6           0       -1.403843   -3.167405    0.197654
     14          6           0       -3.186662   -1.403680   -0.057194
     15          1           0        6.267723    1.772044    0.232164
     16          1           0        3.215952   -0.990783    1.188870
     17          1           0        3.624558   -1.446417   -0.474636
     18          1           0        1.072486   -1.837034    0.413320
     19          1           0        0.704735   -1.640554   -1.309883
     20          1           0        0.015338    0.377769    1.779009
     21          1           0       -0.763776   -1.169091    2.109977
     22          1           0       -1.754205    0.241601    1.700265
     23          1           0       -1.066864    2.365527   -1.335139
     24          1           0       -0.542642    2.018657    0.339553
     25          1           0       -3.921202    3.185263    0.681752
     26          1           0       -2.766526    3.869338   -0.492961
     27          1           0       -2.243356    3.531776    1.177838
     28          1           0       -1.649109   -1.848321   -1.475076
     29          1           0       -1.435600   -3.168655    1.292991
     30          1           0       -0.422018   -3.535281   -0.112928
     31          1           0       -2.145823   -3.895961   -0.144183
     32          1           0       -3.379402   -1.443808    1.020763
     33          1           0       -3.871526   -2.111620   -0.535488
     34          1           0       -3.422561   -0.397973   -0.407287
 ---------------------------------------------------------------------

 SCF Done:  E(RB3LYP) =  -979.802816797     A.U. after    1 cycles

 The electronic state is 1-A.
 Alpha  occ. eigenvalues --  -88.86843 -19.14351 -19.14196 -10.26947 -10.24705
 Alpha  occ. eigenvalues --  -10.23662 -10.22723 -10.20898 -10.18823 -10.18474
 Alpha  occ. eigenvalues --  -10.17743 -10.17488 -10.17286 -10.15969  -7.93108
 Alpha  occ. eigenvalues --   -5.89618  -5.89263  -5.88589  -1.06263  -1.00828
 Alpha  occ. eigenvalues --   -0.82719  -0.80580  -0.76023  -0.72971  -0.71023
 Alpha  occ. eigenvalues --   -0.69664  -0.67669  -0.65675  -0.61967  -0.58806
 Alpha  occ. eigenvalues --   -0.54468  -0.52995  -0.50049  -0.49844  -0.48613
 Alpha  occ. eigenvalues --   -0.46959  -0.46422  -0.45170  -0.44092  -0.43546
 Alpha  occ. eigenvalues --   -0.43031  -0.40880  -0.40540  -0.39920  -0.38786
 Alpha  occ. eigenvalues --   -0.38098  -0.36991  -0.36377  -0.34199  -0.33025
 Alpha  occ. eigenvalues --   -0.32572  -0.32440  -0.31056  -0.30609  -0.27093
 Alpha  occ. eigenvalues --   -0.26885  -0.26645  -0.25628  -0.22089
 Alpha virt. eigenvalues --    0.02028   0.04105   0.05057   0.07382   0.09251
 Alpha virt. eigenvalues --    0.10019   0.10996   0.12357   0.12660   0.12862
 Alpha virt. eigenvalues --    0.13922   0.14190   0.14549   0.15173   0.15537

 Mulliken charges:
               1
     1  C   -0.418729
     2  C    0.295362
     3  C   -0.361690
     4  S   -0.119030
     5  C   -0.231334
     6  C    0.342735
     7  C   -0.470853
     8  O   -0.301701
     9  C    0.034173
    10  O   -0.222461
    11  C   -0.236049
    12  C    0.035548
    13  C   -0.411615
    14  C   -0.417803
    15  H    0.201887
    16  H    0.149088
    17  H    0.152113
    18  H    0.120782
    19  H    0.128834
    20  H    0.139948
    21  H    0.114622
    22  H    0.146840
    23  H    0.101319
    24  H    0.096017
    25  H    0.131949
    26  H    0.109298
    27  H    0.107779
    28  H    0.082947
    29  H    0.115363
    30  H    0.109636
    31  H    0.117225
    32  H    0.105081
    33  H    0.103143
    34  H    0.149577
 Sum of Mulliken charges =  -0.00000

 Dipole moment (field-independent basis, Debye):
    X=              0.0302    Y=             -0.4934    Z=              1.4509  Tot=              1.5328
 Quadrupole moment (field-independent basis, Debye-Ang):
   XX=            -92.1530   YY=            -84.2169   ZZ=            -95.6743
   XY=             -3.2681   XZ=              0.1074   YZ=              0.9698

  Exact polarizability: 185.381  14.143 149.195   1.356  -0.525 108.814
 Approx polarizability: 235.452  25.876 212.890   3.900  -1.481 176.204

                      1                      2                      3
                      A                      A                      A
 Frequencies --     19.6294                40.5079                49.8118
 Red. masses --      5.5184                 4.0220                 2.7079
 Frc consts  --      0.0013                 0.0039                 0.0040
 IR Inten    --      0.4490                 0.4494                 1.4685

                      4                      5                      6
                      A                      A                      A
 Frequencies --     61.5238                65.9875                88.2209
 Red. masses --      3.9233                 2.6904                 2.8190
 Frc consts  --      0.0087                 0.0069                 0.0129
 IR Inten    --      1.3682                 0.5766                 1.3751

                      7                      8                      9
                      A                      A                      A
 Frequencies --    116.1017               137.1363               150.7154
 Red. masses --      2.7159                 2.6532                 4.6162
 Frc consts  --      0.0216                 0.0294                 0.0618
 IR Inten    --      3.5265                 2.8515                 0.1037

                     10                     11                     12
                      A                      A                      A
 Frequencies --    182.8162               215.9355               225.9019
 Red. masses --      5.9721                 1.4051                 1.2546
 Frc consts  --      0.1176                 0.0386                 0.0377
 IR Inten    --      2.2511                 1.6984                 0.9546

                     13                     14                     15
                      A                      A                      A
 Frequencies --    241.4694               256.9816               265.4435
 Red. masses --      1.2270                 1.7923                 2.5822
 Frc consts  --      0.0422                 0.0697                 0.1072
 IR Inten    --      0.6920                 1.4251                 0.5508

                     16                     17                     18
                      A                      A                      A
 Frequencies --    287.2002               308.7400               315.9170
 Red. masses --      1.2589                 2.5795                 2.9865
 Frc consts  --      0.0612                 0.1449                 0.1756
 IR Inten    --      1.0449                 0.2595                 0.1685

                     19                     20                     21
                      A                      A                      A
 Frequencies --    334.3352               337.2488               351.4294
 Red. masses --      3.2530                 2.4223                 2.4237
 Frc consts  --      0.2142                 0.1623                 0.1764
 IR Inten    --      4.0948                 0.8408                 1.9579

                     22                     23                     24
                      A                      A                      A
 Frequencies --    360.2465               437.4295               460.4721
 Red. masses --      2.6266                 3.9738                 4.5911
 Frc consts  --      0.2008                 0.4480                 0.5736
 IR Inten    --      5.6194                 4.7776                 0.3938

                     25                     26                     27
                      A                      A                      A
 Frequencies --    490.6144               545.7110               598.9181
 Red. masses --      3.1759                 2.6114                 3.9790
 Frc consts  --      0.4504                 0.4582                 0.8409
 IR Inten    --      2.6562                 1.1803                 3.8802

                     28                     29                     30
                      A                      A                      A
 Frequencies --    618.2756               644.2606               711.7354
 Red. masses --      1.1948                 1.2774                 3.7623
 Frc consts  --      0.2691                 0.3124                 1.1229
 IR Inten    --     43.1102                34.7107                 0.9901

                     31                     32                     33
                      A                      A                      A
 Frequencies --    737.4622               762.1891               845.6557
 Red. masses --      4.5624                 5.8758                 2.3592
 Frc consts  --      1.4619                 2.0111                 0.9940
 IR Inten    --     13.8070                 5.0855                 5.7981

                     34                     35                     36
                      A                      A                      A
 Frequencies --    870.8469               892.8379               911.7357
 Red. masses --      1.9347                 1.4622                 1.9004
 Frc consts  --      0.8645                 0.6868                 0.9308
 IR Inten    --      0.0157                 0.5474                10.3937

                     37                     38                     39
                      A                      A                      A
 Frequencies --    927.4535               939.3125               972.8401
 Red. masses --      1.6924                 1.3162                 1.6372
 Frc consts  --      0.8577                 0.6842                 0.9129
 IR Inten    --      1.8444                 3.5574                 8.3483

                     40                     41                     42
                      A                      A                      A
 Frequencies --    974.9825               978.6002              1029.7495
 Red. masses --      3.9811                 3.0966                 1.6364
 Frc consts  --      2.2297                 1.7472                 1.0224
 IR Inten    --     25.5930                39.2229                 7.5288

                     43                     44                     45
                      A                      A                      A
 Frequencies --   1108.6871              1116.9459              1129.5737
 Red. masses --      2.1812                 5.7717                 1.8706
 Frc consts  --      1.5797                 4.2425                 1.4062
 IR Inten    --      3.4445               298.3815                62.4965

                     46                     47                     48
                      A                      A                      A
 Frequencies --   1142.9225              1158.3956              1169.0547
 Red. masses --      1.5831                 1.4674                 1.2229
 Frc consts  --      1.2184                 1.1601                 0.9847
 IR Inten    --      2.8030                14.4293                25.4155

                     49                     50                     51
                      A                      A                      A
 Frequencies --   1171.3028              1193.3369              1206.7583
 Red. masses --      2.3955                 1.4570                 1.6837
 Frc consts  --      1.9363                 1.2224                 1.4446
 IR Inten    --    140.4080                34.9109                 7.0654

                     52                     53                     54
                      A                      A                      A
 Frequencies --   1210.5734              1235.1842              1243.3423
 Red. masses --      2.0096                 1.8555                 1.3848
 Frc consts  --      1.7352                 1.6679                 1.2613
 IR Inten    --     34.0265                16.2409                24.9462

                     55                     56                     57
                      A                      A                      A
 Frequencies --   1272.3065              1293.7443              1311.8120
 Red. masses --      1.8343                 1.1772                 1.4575
 Frc consts  --      1.7495                 1.1609                 1.4778
 IR Inten    --     25.7914                 0.6295                 4.3410

                     58                     59                     60
                      A                      A                      A
 Frequencies --   1344.1398              1369.4447              1401.4359
 Red. masses --      1.3776                 1.3247                 1.2416
 Frc consts  --      1.4665                 1.4637                 1.4367
 IR Inten    --      1.1861                 0.5047                 2.7661

                     61                     62                     63
                      A                      A                      A
 Frequencies --   1409.0486              1424.8389              1439.9530
 Red. masses --      1.3053                 1.2164                 1.1555
 Frc consts  --      1.5269                 1.4550                 1.4116
 IR Inten    --     13.6951                 8.8429                36.8009

                     64                     65                     66
                      A                      A                      A
 Frequencies --   1464.1296              1469.9272              1482.0192
 Red. masses --      1.0900                 1.0986                 1.1476
 Frc consts  --      1.3767                 1.3986                 1.4850
 IR Inten    --      5.2082                 0.0902                 1.1391

                     67                     68                     69
                      A                      A                      A
 Frequencies --   1486.8271              1489.6923              1493.1257
 Red. masses --      1.0452                 1.0534                 1.0470
 Frc consts  --      1.3614                 1.3773                 1.3752
 IR Inten    --      4.3661                 5.3881                 1.0969

                     70                     71                     72
                      A                      A                      A
 Frequencies --   1496.3489              1507.0150              1510.7181
 Red. masses --      1.0503                 1.0583                 1.0484
 Frc consts  --      1.3856                 1.4160                 1.4098
 IR Inten    --      0.2576                 5.9677                 8.5914

                     73                     74                     75
                      A                      A                      A
 Frequencies --   1514.9462              1517.7527              1537.2173
 Red. masses --      1.0677                 1.0569                 1.0784
 Frc consts  --      1.4438                 1.4344                 1.5014
 IR Inten    --      7.7293                 4.4136                 3.8963

                     76                     77                     78
                      A                      A                      A
 Frequencies --   2240.9641              2966.9170              2978.5252
 Red. masses --      5.9304                 1.0429                 1.0462
 Frc consts  --     17.5471                 5.4089                 5.4683
 IR Inten    --      0.4824                24.1826                88.0100

                     79                     80                     81
                      A                      A                      A
 Frequencies --   3009.3602              3016.4813              3019.1217
 Red. masses --      1.1092                 1.1036                 1.0826
 Frc consts  --      5.9186                 5.9162                 5.8140
 IR Inten    --     66.3608                37.0955                10.3894

                     82                     83                     84
                      A                      A                      A
 Frequencies --   3030.7450              3032.4929              3037.1827
 Red. masses --      1.0556                 1.0373                 1.0387
 Frc consts  --      5.7129                 5.6200                 5.6452
 IR Inten    --     13.1594                15.5571                34.5988

                     85                     86                     87
                      A                      A                      A
 Frequencies --   3050.0692              3057.7528              3072.5659
 Red. masses --      1.0557                 1.0386                 1.1067
 Frc consts  --      5.7864                 5.7212                 6.1559
 IR Inten    --     20.5671                12.4443                 5.2269

                     88                     89                     90
                      A                      A                      A
 Frequencies --   3090.4376              3098.0993              3105.3828
 Red. masses --      1.1006                 1.0996                 1.1046
 Frc consts  --      6.1932                 6.2185                 6.2761
 IR Inten    --      6.9963                58.3547                23.6176

                     91                     92                     93
                      A                      A                      A
 Frequencies --   3110.7903              3120.4240              3121.4710
 Red. masses --      1.1023                 1.1002                 1.0960
 Frc consts  --      6.2847                 6.3116                 6.2917
 IR Inten    --     25.7703                13.9213                26.3551

                     94                     95                     96
                      A                      A                      A
 Frequencies --   3147.3213              3151.3024              3507.6421
 Red. masses --      1.0979                 1.1006                 1.1625
 Frc consts  --      6.4077                 6.4395                 8.4268
 IR Inten    --      3.8033                 6.4379                76.1210

 - Thermochemistry -
 -------------------
 Temperature   298.150 Kelvin.  Pressure   1.00000 Atm.
 Atom     1 has atomic number  6 and mass  12.00000

 Molecular mass:   216.11840 amu.
 Principal axes and moments of inertia in atomic units:
                           1         2         3
     Eigenvalues --  2240.905365437.286687119.54454
           X            0.99999  -0.00271  -0.00265
           Y            0.00272   0.99999   0.00238
           Z            0.00264  -0.00239   0.99999
 This molecule is an asymmetric top.
 Rotational symmetry number  1.
 Warning -- assumption of classical behavior for rotation
           may cause significant error
 Rotational temperatures (Kelvin)      0.03865     0.01593     0.01217
 Rotational constants (GHZ):           0.80536     0.33192     0.25349
 Zero-point vibrational energy     765920.8 (Joules/Mol)
                                  183.05946 (Kcal/Mol)
 Warning -- explicit consideration of  28 degrees of freedom as
           vibrations may cause significant error
 Vibrational temperatures:     28.24    58.28    71.67    88.52    94.94
          (Kelvin)            126.93   167.04   197.31   216.85   263.03
                              310.68   325.02   347.42   369.74   381.91
                              413.22   444.21   454.53   481.03   485.23
                              505.63   518.31   629.36   662.52   705.88
                              785.16   861.71   889.56   926.95  1024.03
                             1061.04  1096.62  1216.71  1252.95  1284.59
                             1311.78  1334.40  1351.46  1399.70  1402.78
                             1407.99  1481.58  1595.15  1607.04  1625.20
                             1644.41  1666.67  1682.01  1685.24  1716.95
                             1736.26  1741.75  1777.15  1788.89  1830.57
                             1861.41  1887.40  1933.92  1970.33  2016.35
                             2027.31  2050.03  2071.77  2106.56  2114.90
                             2132.30  2139.21  2143.33  2148.27  2152.91
                             2168.26  2173.59  2179.67  2183.71  2211.71
                             3224.25  4268.73  4285.43  4329.80  4340.04
                             4343.84  4360.57  4363.08  4369.83  4388.37
                             4399.42  4420.74  4446.45  4457.47  4467.95
                             4475.73  4489.59  4491.10  4528.29  4534.02
                             5046.71

 Zero-point correction=                           0.291724 (Hartree/Particle)
 Thermal correction to Energy=                    0.309873
 Thermal correction to Enthalpy=                  0.310818
 Thermal correction to Gibbs Free Energy=         0.244353
 Sum of electronic and zero-point Energies=           -979.511093
 Sum of electronic and thermal Energies=              -979.492943
 Sum of electronic and thermal Enthalpies=            -979.491999
 Sum of electronic and thermal Free Energies=         -979.558464

                     E (Thermal)             CV                S
                      KCal/Mol        Cal/Mol-Kelvin    Cal/Mol-Kelvin
 Total                  194.448             65.327            139.886
 Electronic               0.000              0.000              0.000
 Translational            0.889              2.981             42.015
 Rotational               0.889              2.981             32.828
 Vibrational            192.671             59.365             65.043
 Vibration     1          0.593              1.986              6.671
 Vibration     2          0.594              1.981              5.234
 Vibration     3          0.595              1.978              4.825
 Vibration     4          0.597              1.973              4.408
 Vibration     5          0.597              1.970              4.270
 Vibration     6          0.601              1.957              3.699
 Vibration     7          0.608              1.936              3.164
 Vibration     8          0.614              1.916              2.843
 Vibration     9          0.618              1.902              2.663
 Vibration    10          0.630              1.863              2.299
 Vibration    11          0.645              1.817              1.993
 Vibration    12          0.650              1.802              1.911
 Vibration    13          0.658              1.777              1.792
 Vibration    14          0.667              1.751              1.682
 Vibration    15          0.671              1.736              1.626
 Vibration    16          0.684              1.697              1.490
 Vibration    17          0.698              1.657              1.369
 Vibration    18          0.703              1.643              1.331
 Vibration    19          0.716              1.607              1.239
 Vibration    20          0.718              1.601              1.225
 Vibration    21          0.728              1.572              1.160
 Vibration    22          0.735              1.554              1.121
 Vibration    23          0.798              1.389              0.835
 Vibration    24          0.818              1.338              0.765
 Vibration    25          0.846              1.271              0.682
 Vibration    26          0.901              1.149              0.553
 Vibration    27          0.957              1.034              0.452
 Vibration    28          0.978              0.993              0.419

                           ! Non-Optimized Parameters !
 Normal termination of Gaussian 16 at Sun May 28 03:51:46 2023.
