 Gaussian 16, Revision A.03,
 Gaussian 16:  ES64L-G16RevA.03 25-Dec-2016

 -----------------------------
 # opt freq b3lyp/6-31g(2df,p)
 -----------------------------

 -------------------
 Title Card Required
 -------------------
 Symbolic Z-matrix:
 Charge =  0 Multiplicity = 1

 SCF Done:  E(RB3LYP) =  -752.014373714     A.U. after   14 cycles
 SCF Done:  E(RB3LYP) =  -752.055182971     A.U. after   12 cycles
 SCF Done:  E(RB3LYP) =  -752.063794829     A.U. after   12 cycles
 SCF Done:  E(RB3LYP) =  -752.072917911     A.U. after   12 cycles
 SCF Done:  E(RB3LYP) =  -752.059370457     A.U. after   14 cycles
 SCF Done:  E(RB3LYP) =  -752.074365601     A.U. after   11 cycles
 SCF Done:  E(RB3LYP) =  -752.065469235     A.U. after   13 cycles
 SCF Done:  E(RB3LYP) =  -752.075797402     A.U. after   10 cycles
 SCF Done:  E(RB3LYP) =  -752.076288305     A.U. after   11 cycles
 SCF Done:  E(RB3LYP) =  -752.076718712     A.U. after   11 cycles
 SCF Done:  E(RB3LYP) =  -752.079949090     A.U. after    9 cycles
 SCF Done:  E(RB3LYP) =  -752.079969261     A.U. after    9 cycles
 SCF Done:  E(RB3LYP) =  -752.079995426     A.U. after    9 cycles
 SCF Done:  E(RB3LYP) =  -752.080001826     A.U. after    9 cycles
 SCF Done:  E(RB3LYP) =  -752.080006770     A.U. after    9 cycles
 SCF Done:  E(RB3LYP) =  -752.080007322     A.U. after    7 cycles
 SCF Done:  E(RB3LYP) =  -752.080007314     A.U. after    7 cycles
 SCF Done:  E(RB3LYP) =  -752.080007352     A.U. after    6 cycles
 SCF Done:  E(RB3LYP) =  -752.080007346     A.U. after    6 cycles
 Optimization completed.
    -- Stationary point found.
 Normal termination of Gaussian 16 at Sun May 28 04:17:25 2023.

 ----------------------------------------------------------------------
 #N Geom=AllCheck Guess=TCheck SCRF=Check GenChk RB3LYP/6-31G(2df,p) Fr
 eq
 ----------------------------------------------------------------------

 Structure from the checkpoint file:  "CtCC1NCCCqCCqCrCC2CCNC2rC1N.chk"
 -------------------
 Title Card Required
 -------------------
 Charge =  0 Multiplicity = 1

                         Standard orientation:
 ---------------------------------------------------------------------
 Center     Atomic      Atomic             Coordinates (Angstroms)
 Number     Number       Type             X           Y           Z
 ---------------------------------------------------------------------
      1          6           0        3.585839    2.923642   -0.395167
      2          6           0        3.710633    1.729250   -0.480219
      3          6           0        3.882225    0.271356   -0.579871
      4          7           0        4.485443   -0.353183    0.607578
      5          6           0        3.663953   -0.207056    1.815308
      6          6           0        2.307458   -0.884174    1.602010
      7          6           0        1.597926   -0.341837    0.346706
      8          6           0        0.220662   -1.004981    0.119900
      9          6           0       -0.936058   -0.042501   -0.221305
     10          6           0       -0.688777    0.735074   -1.522685
     11          6           0       -2.263369   -0.827701   -0.265871
     12          6           0       -3.544952    0.005125   -0.371294
     13          6           0       -3.829687    0.939055    0.835503
     14          6           0       -5.372381    0.848823    1.056464
     15          7           0       -5.938292    0.034906   -0.035555
     16          6           0       -4.837295   -0.841600   -0.448390
     17          6           0        2.542418   -0.472513   -0.875044
     18          7           0        2.771638   -1.877325   -1.219852
     19          1           0        3.477307    3.977789   -0.324091
     20          1           0        4.556068    0.071887   -1.422868
     21          1           0        5.408361    0.036434    0.764595
     22          1           0        3.503599    0.851409    2.083795
     23          1           0        4.201733   -0.677254    2.645268
     24          1           0        1.675826   -0.719511    2.482315
     25          1           0        2.445385   -1.968488    1.509220
     26          1           0        1.446855    0.734119    0.507286
     27          1           0       -0.059932   -1.550116    1.030159
     28          1           0        0.319084   -1.766724   -0.662426
     29          1           0       -1.007026    0.689986    0.596789
     30          1           0       -0.592158    0.050545   -2.374542
     31          1           0        0.224753    1.334183   -1.467180
     32          1           0       -1.508939    1.424968   -1.743513
     33          1           0       -2.333923   -1.445998    0.640333
     34          1           0       -2.222512   -1.533102   -1.108885
     35          1           0       -3.507736    0.614747   -1.283046
     36          1           0       -3.502223    1.964349    0.642328
     37          1           0       -3.291750    0.597093    1.726576
     38          1           0       -5.861007    1.826241    1.090438
     39          1           0       -5.584813    0.352122    2.010800
     40          1           0       -6.158248    0.650542   -0.813484
     41          1           0       -5.024984   -1.260983   -1.441095
     42          1           0       -4.773075   -1.682868    0.257152
     43          1           0        2.072333    0.007675   -1.737517
     44          1           0        3.494228   -2.245810   -0.606072
     45          1           0        3.139689   -1.943797   -2.163800
 ---------------------------------------------------------------------

 SCF Done:  E(RB3LYP) =  -752.080007346     A.U. after    1 cycles

 The electronic state is 1-A.
 Alpha  occ. eigenvalues --  -14.32152 -14.30282 -14.30189 -10.23004 -10.20847
 Alpha  occ. eigenvalues --  -10.20198 -10.19413 -10.19136 -10.18082 -10.17678
 Alpha  occ. eigenvalues --  -10.17553 -10.17487 -10.17475 -10.17321 -10.17010
 Alpha  occ. eigenvalues --  -10.16895 -10.16488 -10.16119  -0.92367  -0.90344
 Alpha  occ. eigenvalues --   -0.87106  -0.80941  -0.77878  -0.76739  -0.74467
 Alpha  occ. eigenvalues --   -0.71771  -0.71270  -0.67910  -0.66025  -0.62577
 Alpha  occ. eigenvalues --   -0.61057  -0.58861  -0.56575  -0.54951  -0.53841
 Alpha  occ. eigenvalues --   -0.52658  -0.51452  -0.49660  -0.47486  -0.46857
 Alpha  occ. eigenvalues --   -0.46118  -0.45434  -0.44339  -0.43848  -0.42738
 Alpha  occ. eigenvalues --   -0.41533  -0.40747  -0.40180  -0.39433  -0.38626
 Alpha  occ. eigenvalues --   -0.37692  -0.37554  -0.36620  -0.35452  -0.34594
 Alpha  occ. eigenvalues --   -0.34162  -0.33174  -0.32978  -0.32293  -0.31399
 Alpha  occ. eigenvalues --   -0.30583  -0.30266  -0.29961  -0.29034  -0.27917
 Alpha  occ. eigenvalues --   -0.26699  -0.23374  -0.23103  -0.21656
 Alpha virt. eigenvalues --    0.04442   0.05125   0.07111   0.07922   0.09844
 Alpha virt. eigenvalues --    0.10414   0.10929   0.11427   0.11878   0.12600
 Alpha virt. eigenvalues --    0.13363   0.13792   0.14330   0.14491   0.15198

 Mulliken charges:
               1
     1  C   -0.475592
     2  C    0.350720
     3  C   -0.209253
     4  N   -0.293607
     5  C   -0.178307
     6  C   -0.208957
     7  C    0.034847
     8  C   -0.228605
     9  C    0.021337
    10  C   -0.395087
    11  C   -0.206487
    12  C    0.023361
    13  C   -0.223187
    14  C   -0.171366
    15  N   -0.285187
    16  C   -0.193698
    17  C    0.010035
    18  N   -0.512913
    19  H    0.195344
    20  H    0.090659
    21  H    0.223665
    22  H    0.092840
    23  H    0.096321
    24  H    0.091247
    25  H    0.105309
    26  H    0.079227
    27  H    0.079642
    28  H    0.113140
    29  H    0.068661
    30  H    0.108655
    31  H    0.122423
    32  H    0.107870
    33  H    0.085667
    34  H    0.087893
    35  H    0.063056
    36  H    0.095899
    37  H    0.095148
    38  H    0.096322
    39  H    0.103980
    40  H    0.211147
    41  H    0.095628
    42  H    0.096943
    43  H    0.078770
    44  H    0.233703
    45  H    0.222789
 Sum of Mulliken charges =   0.00000

 Dipole moment (field-independent basis, Debye):
    X=              2.2877    Y=              1.4790    Z=             -0.3702  Tot=              2.7492
 Quadrupole moment (field-independent basis, Debye-Ang):
   XX=           -116.5516   YY=           -110.7824   ZZ=           -107.7742
   XY=             -4.7550   XZ=              2.9367   YZ=              0.3896

  Exact polarizability: 198.894  -0.715 173.654   0.340   0.745 154.715
 Approx polarizability: 236.287  -6.728 280.155   0.649   2.687 237.890

                      1                      2                      3
                      A                      A                      A
 Frequencies --     20.0430                29.7469                43.9501
 Red. masses --      2.8835                 4.0802                 2.8734
 Frc consts  --      0.0007                 0.0021                 0.0033
 IR Inten    --      0.2717                 0.0245                 0.0916

                      4                      5                      6
                      A                      A                      A
 Frequencies --     47.4144                63.8766                91.6501
 Red. masses --      3.3202                 2.4760                 3.0076
 Frc consts  --      0.0044                 0.0060                 0.0149
 IR Inten    --      0.0499                 0.1786                 0.5461

                      7                      8                      9
                      A                      A                      A
 Frequencies --    103.1870               123.2080               153.0634
 Red. masses --      3.6551                 3.4794                 3.7603
 Frc consts  --      0.0229                 0.0311                 0.0519
 IR Inten    --      0.3027                 0.4104                 1.6891

                     10                     11                     12
                      A                      A                      A
 Frequencies --    176.5618               198.9207               231.4582
 Red. masses --      3.6790                 3.5924                 1.8541
 Frc consts  --      0.0676                 0.0838                 0.0585
 IR Inten    --      0.1786                 0.5507                 3.6520

                     13                     14                     15
                      A                      A                      A
 Frequencies --    238.9883               266.3732               282.4694
 Red. masses --      2.4316                 1.6620                 2.4605
 Frc consts  --      0.0818                 0.0695                 0.1157
 IR Inten    --      0.9199                 1.7380                 0.9109

                     16                     17                     18
                      A                      A                      A
 Frequencies --    297.2907               304.9458               325.9947
 Red. masses --      1.1856                 2.1932                 2.4651
 Frc consts  --      0.0617                 0.1202                 0.1543
 IR Inten    --     25.8495                 1.0261                 3.2928

                     19                     20                     21
                      A                      A                      A
 Frequencies --    334.0376               354.3508               395.4635
 Red. masses --      2.1284                 3.6421                 2.0974
 Frc consts  --      0.1399                 0.2694                 0.1933
 IR Inten    --      4.1843                 6.0364                 0.0940

                     22                     23                     24
                      A                      A                      A
 Frequencies --    422.3778               443.1764               462.8627
 Red. masses --      2.0750                 3.2049                 2.7668
 Frc consts  --      0.2181                 0.3709                 0.3493
 IR Inten    --      3.6927                 8.1678                 7.2045

                     25                     26                     27
                      A                      A                      A
 Frequencies --    501.8499               524.5689               572.4063
 Red. masses --      2.5802                 2.7219                 4.2342
 Frc consts  --      0.3829                 0.4413                 0.8174
 IR Inten    --      6.0303                 2.0864                 7.3974

                     28                     29                     30
                      A                      A                      A
 Frequencies --    610.5925               625.1234               631.1163
 Red. masses --      3.1509                 1.2584                 2.7083
 Frc consts  --      0.6921                 0.2897                 0.6356
 IR Inten    --      2.5773                43.1300                 1.1024

                     31                     32                     33
                      A                      A                      A
 Frequencies --    647.4197               671.9878               701.0586
 Red. masses --      1.2361                 3.0455                 2.4418
 Frc consts  --      0.3053                 0.8103                 0.7071
 IR Inten    --     37.4527                 0.7402                50.3001

                     34                     35                     36
                      A                      A                      A
 Frequencies --    769.3192               797.4518               814.2495
 Red. masses --      2.7429                 1.3084                 2.3024
 Frc consts  --      0.9565                 0.4902                 0.8994
 IR Inten    --     17.9784                 9.7564                25.4948

                     37                     38                     39
                      A                      A                      A
 Frequencies --    824.2005               831.9961               838.4450
 Red. masses --      1.9719                 1.9025                 1.7584
 Frc consts  --      0.7892                 0.7759                 0.7283
 IR Inten    --      2.0933                56.1842                69.8608

                     40                     41                     42
                      A                      A                      A
 Frequencies --    868.1296               880.5705               897.6394
 Red. masses --      1.8952                 2.0333                 1.5606
 Frc consts  --      0.8415                 0.9289                 0.7409
 IR Inten    --     33.8711                 1.6902                 5.6010

                     43                     44                     45
                      A                      A                      A
 Frequencies --    903.9512               933.9437               940.3996
 Red. masses --      1.9794                 2.3193                 1.7895
 Frc consts  --      0.9530                 1.1919                 0.9324
 IR Inten    --     51.6394                 6.6991                76.5324

                     46                     47                     48
                      A                      A                      A
 Frequencies --    941.0858               945.6152               966.8195
 Red. masses --      2.4286                 2.4145                 2.6670
 Frc consts  --      1.2672                 1.2721                 1.4688
 IR Inten    --      5.1032                28.6209                 5.0628

                     49                     50                     51
                      A                      A                      A
 Frequencies --    981.9063              1000.8261              1013.4542
 Red. masses --      3.0785                 1.8479                 1.3495
 Frc consts  --      1.7488                 1.0906                 0.8166
 IR Inten    --     12.0018                 2.7515                 2.9090

                     52                     53                     54
                      A                      A                      A
 Frequencies --   1021.6295              1033.7518              1062.6990
 Red. masses --      1.6443                 2.2599                 1.7514
 Frc consts  --      1.0111                 1.4229                 1.1654
 IR Inten    --      3.1847                 5.6488                 1.1881

                     55                     56                     57
                      A                      A                      A
 Frequencies --   1069.5090              1090.3532              1094.0661
 Red. masses --      1.9783                 2.4344                 2.6889
 Frc consts  --      1.3333                 1.7052                 1.8963
 IR Inten    --      1.9810                 3.8299                 5.3051

                     58                     59                     60
                      A                      A                      A
 Frequencies --   1099.5081              1112.6247              1137.1019
 Red. masses --      2.0188                 2.2897                 2.1223
 Frc consts  --      1.4379                 1.6700                 1.6168
 IR Inten    --      4.3829                15.8719                 7.7361

                     61                     62                     63
                      A                      A                      A
 Frequencies --   1143.1288              1146.0328              1160.2764
 Red. masses --      2.8826                 3.2645                 2.0040
 Frc consts  --      2.2194                 2.5262                 1.5895
 IR Inten    --     13.1599                19.6185                13.2339

                     64                     65                     66
                      A                      A                      A
 Frequencies --   1185.4757              1200.4963              1216.2718
 Red. masses --      1.3576                 1.4038                 1.3856
 Frc consts  --      1.1241                 1.1920                 1.2077
 IR Inten    --      7.3600                 2.6588                 0.7067

                     67                     68                     69
                      A                      A                      A
 Frequencies --   1233.6453              1238.5460              1254.0275
 Red. masses --      1.3661                 1.2672                 1.3828
 Frc consts  --      1.2249                 1.1453                 1.2813
 IR Inten    --      2.3847                 0.9315                 1.3807

                     70                     71                     72
                      A                      A                      A
 Frequencies --   1278.7666              1285.3510              1287.5625
 Red. masses --      1.3664                 1.2784                 1.2974
 Frc consts  --      1.3164                 1.2444                 1.2672
 IR Inten    --      0.6864                 5.4230                 4.3992

                     73                     74                     75
                      A                      A                      A
 Frequencies --   1291.0861              1309.3805              1317.6212
 Red. masses --      1.2622                 1.1900                 1.2734
 Frc consts  --      1.2397                 1.2021                 1.3025
 IR Inten    --      0.6515                 0.2009                 0.3956

                     76                     77                     78
                      A                      A                      A
 Frequencies --   1324.1933              1327.8130              1341.5471
 Red. masses --      1.2646                 1.2532                 1.2622
 Frc consts  --      1.3065                 1.3018                 1.3384
 IR Inten    --      5.2380                 3.3098                13.1194

                     79                     80                     81
                      A                      A                      A
 Frequencies --   1348.3767              1350.4581              1365.5515
 Red. masses --      1.2399                 1.2246                 1.4547
 Frc consts  --      1.3282                 1.3158                 1.5983
 IR Inten    --      5.1755                 5.5080                 4.3005

                     82                     83                     84
                      A                      A                      A
 Frequencies --   1374.4762              1383.0484              1388.4840
 Red. masses --      1.3647                 1.4393                 1.4292
 Frc consts  --      1.5190                 1.6221                 1.6234
 IR Inten    --      0.0964                 3.0894                 4.5354

                     85                     86                     87
                      A                      A                      A
 Frequencies --   1391.6339              1399.5535              1403.9347
 Red. masses --      1.5373                 1.3694                 1.3789
 Frc consts  --      1.7541                 1.5804                 1.6013
 IR Inten    --      0.6983                 0.2555                 9.0458

                     88                     89                     90
                      A                      A                      A
 Frequencies --   1414.4874              1424.2212              1468.7739
 Red. masses --      1.2980                 1.3357                 1.1408
 Frc consts  --      1.5301                 1.5963                 1.4500
 IR Inten    --      7.3633                 4.8451                 5.2704

                     91                     92                     93
                      A                      A                      A
 Frequencies --   1477.1350              1480.1272              1488.3438
 Red. masses --      1.0921                 1.2649                 1.1101
 Frc consts  --      1.4039                 1.6327                 1.4489
 IR Inten    --      0.5247                 8.0239                 1.0500

                     94                     95                     96
                      A                      A                      A
 Frequencies --   1493.2185              1493.8533              1495.7747
 Red. masses --      1.0821                 1.0822                 1.0777
 Frc consts  --      1.4216                 1.4229                 1.4206
 IR Inten    --      0.7878                 0.2493                 0.8384

                     97                     98                     99
                      A                      A                      A
 Frequencies --   1501.3788              1505.1403              1510.8125
 Red. masses --      1.0693                 1.0951                 1.0508
 Frc consts  --      1.4201                 1.4617                 1.4131
 IR Inten    --      3.1312                 0.8541                 6.2304

                    100                    101                    102
                      A                      A                      A
 Frequencies --   1513.9630              1663.8520              2214.3338
 Red. masses --      1.0908                 1.0881                 5.9338
 Frc consts  --      1.4731                 1.7748                17.1423
 IR Inten    --      2.4527                28.4668                 0.3880

                    103                    104                    105
                      A                      A                      A
 Frequencies --   2955.5234              2986.8176              2993.8905
 Red. masses --      1.0711                 1.0767                 1.0639
 Frc consts  --      5.5126                 5.6595                 5.6184
 IR Inten    --     42.7319                 3.6974                12.1886

                    106                    107                    108
                      A                      A                      A
 Frequencies --   3001.2391              3013.5078              3014.8114
 Red. masses --      1.0701                 1.0797                 1.0819
 Frc consts  --      5.6790                 5.7772                 5.7935
 IR Inten    --     34.0184                 4.6459                24.9301

                    109                    110                    111
                      A                      A                      A
 Frequencies --   3017.2901              3018.3270              3026.0213
 Red. masses --      1.0658                 1.0831                 1.0556
 Frc consts  --      5.7167                 5.8139                 5.6952
 IR Inten    --     19.6706                26.2277                50.6886

                    112                    113                    114
                      A                      A                      A
 Frequencies --   3026.3390              3030.6791              3035.2836
 Red. masses --      1.0548                 1.0623                 1.0933
 Frc consts  --      5.6918                 5.7488                 5.9343
 IR Inten    --     10.7251                31.6358                43.6886

                    115                    116                    117
                      A                      A                      A
 Frequencies --   3044.6663              3063.4458              3065.2507
 Red. masses --      1.0634                 1.0902                 1.0964
 Frc consts  --      5.8081                 6.0282                 6.0694
 IR Inten    --     49.3992                34.7580                28.5410

                    118                    119                    120
                      A                      A                      A
 Frequencies --   3072.0916              3073.2594              3077.0065
 Red. masses --      1.1004                 1.0888                 1.0983
 Frc consts  --      6.1190                 6.0589                 6.1269
 IR Inten    --     33.8173                35.6175                11.3762

                    121                    122                    123
                      A                      A                      A
 Frequencies --   3086.2872              3093.2665              3097.6767
 Red. masses --      1.0963                 1.0975                 1.1020
 Frc consts  --      6.1523                 6.1873                 6.2303
 IR Inten    --     36.3368                22.8472                58.9573

                    124                    125                    126
                      A                      A                      A
 Frequencies --   3104.7470              3484.3567              3496.8249
 Red. masses --      1.0998                 1.0491                 1.0741
 Frc consts  --      6.2464                 7.5045                 7.7385
 IR Inten    --     39.3743                 2.3576                 0.4955

                    127                    128                    129
                      A                      A                      A
 Frequencies --   3500.8042              3530.4890              3563.0226
 Red. masses --      1.1604                 1.0746                 1.0917
 Frc consts  --      8.3790                 7.8917                 8.1657
 IR Inten    --     65.2893                 0.3603                 4.1046

 - Thermochemistry -
 -------------------
 Temperature   298.150 Kelvin.  Pressure   1.00000 Atm.
 Atom     1 has atomic number  6 and mass  12.00000

 Molecular mass:   249.22050 amu.
 Principal axes and moments of inertia in atomic units:
                           1         2         3
     Eigenvalues --  1953.04464********************
           X            0.99999  -0.00500   0.00160
           Y            0.00499   0.99992   0.01142
           Z           -0.00166  -0.01141   0.99993
 This molecule is an asymmetric top.
 Rotational symmetry number  1.
 Warning -- assumption of classical behavior for rotation
           may cause significant error
 Rotational temperatures (Kelvin)      0.04435     0.00733     0.00714
 Rotational constants (GHZ):           0.92407     0.15263     0.14869
 Zero-point vibrational energy    1072654.7 (Joules/Mol)
                                  256.37062 (Kcal/Mol)
 Warning -- explicit consideration of  28 degrees of freedom as
           vibrations may cause significant error
 Vibrational temperatures:     28.84    42.80    63.23    68.22    91.90
          (Kelvin)            131.86   148.46   177.27   220.22   254.03
                              286.20   333.02   343.85   383.25   406.41
                              427.73   438.75   469.03   480.61   509.83
                              568.98   607.71   637.63   665.96   722.05
                              754.74   823.56   878.51   899.41   908.04
                              931.49   966.84  1008.67  1106.88  1147.36
                             1171.52  1185.84  1197.06  1206.34  1249.04
                             1266.94  1291.50  1300.58  1343.74  1353.03
                             1354.01  1360.53  1391.04  1412.74  1439.97
                             1458.13  1469.90  1487.34  1528.99  1538.78
                             1568.78  1574.12  1581.95  1600.82  1636.04
                             1644.71  1648.89  1669.38  1705.64  1727.25
                             1749.94  1774.94  1781.99  1804.27  1839.86
                             1849.33  1852.52  1857.58  1883.91  1895.76
                             1905.22  1910.43  1930.19  1940.01  1943.01
                             1964.72  1977.56  1989.90  1997.72  2002.25
                             2013.65  2019.95  2035.13  2049.14  2113.24
                             2125.27  2129.57  2141.39  2148.41  2149.32
                             2152.09  2160.15  2165.56  2173.72  2178.26
                             2393.91  3185.93  4252.34  4297.36  4307.54
                             4318.11  4335.77  4337.64  4341.21  4342.70
                             4353.77  4354.23  4360.47  4367.10  4380.60
                             4407.62  4410.21  4420.05  4421.73  4427.13
                             4440.48  4450.52  4456.87  4467.04  5013.21
                             5031.15  5036.88  5079.59  5126.39

 Zero-point correction=                           0.408553 (Hartree/Particle)
 Thermal correction to Energy=                    0.427714
 Thermal correction to Enthalpy=                  0.428659
 Thermal correction to Gibbs Free Energy=         0.359560
 Sum of electronic and zero-point Energies=           -751.671455
 Sum of electronic and thermal Energies=              -751.652293
 Sum of electronic and thermal Enthalpies=            -751.651349
 Sum of electronic and thermal Free Energies=         -751.720447

                     E (Thermal)             CV                S
                      KCal/Mol        Cal/Mol-Kelvin    Cal/Mol-Kelvin
 Total                  268.395             74.382            145.429
 Electronic               0.000              0.000              0.000
 Translational            0.889              2.981             42.440
 Rotational               0.889              2.981             33.993
 Vibrational            266.617             68.420             68.996
 Vibration     1          0.593              1.986              6.630
 Vibration     2          0.594              1.984              5.846
 Vibration     3          0.595              1.980              5.073
 Vibration     4          0.595              1.979              4.922
 Vibration     5          0.597              1.972              4.334
 Vibration     6          0.602              1.955              3.625
 Vibration     7          0.605              1.947              3.393
 Vibration     8          0.610              1.930              3.049
 Vibration     9          0.619              1.899              2.634
 Vibration    10          0.628              1.871              2.364
 Vibration    11          0.637              1.841              2.143
 Vibration    12          0.653              1.793              1.868
 Vibration    13          0.657              1.781              1.810
 Vibration    14          0.672              1.735              1.620
 Vibration    15          0.682              1.706              1.519
 Vibration    16          0.691              1.679              1.432
 Vibration    17          0.696              1.664              1.390
 Vibration    18          0.710              1.624              1.280
 Vibration    19          0.716              1.608              1.240
 Vibration    20          0.730              1.566              1.147
 Vibration    21          0.762              1.480              0.979
 Vibration    22          0.785              1.422              0.884
 Vibration    23          0.803              1.376              0.817
 Vibration    24          0.820              1.332              0.758
 Vibration    25          0.857              1.246              0.654
 Vibration    26          0.880              1.196              0.599
 Vibration    27          0.929              1.091              0.500
 Vibration    28          0.970              1.009              0.432

 Optimization completed.
    -- Stationary point found.
 Normal termination of Gaussian 16 at Sun May 28 10:27:51 2023.
