 Gaussian 16, Revision A.03,
 Gaussian 16:  ES64L-G16RevA.03 25-Dec-2016

 -----------------------------
 # opt freq b3lyp/6-31g(2df,p)
 -----------------------------

 -------------------
 Title Card Required
 -------------------
 Symbolic Z-matrix:
 Charge =  0 Multiplicity = 1

 SCF Done:  E(RB3LYP) =  -887.603287950     A.U. after   13 cycles
 SCF Done:  E(RB3LYP) =  -887.628417999     A.U. after   13 cycles
 SCF Done:  E(RB3LYP) =  -887.622022351     A.U. after   14 cycles
 SCF Done:  E(RB3LYP) =  -887.635237056     A.U. after   12 cycles
 SCF Done:  E(RB3LYP) =  -887.636383191     A.U. after   13 cycles
 SCF Done:  E(RB3LYP) =  -887.634871934     A.U. after   13 cycles
 SCF Done:  E(RB3LYP) =  -887.638251730     A.U. after   12 cycles
 SCF Done:  E(RB3LYP) =  -887.639134456     A.U. after   12 cycles
 SCF Done:  E(RB3LYP) =  -887.639730301     A.U. after   11 cycles
 SCF Done:  E(RB3LYP) =  -887.639944131     A.U. after   12 cycles
 SCF Done:  E(RB3LYP) =  -887.640043939     A.U. after   10 cycles
 SCF Done:  E(RB3LYP) =  -887.639959053     A.U. after   10 cycles
 SCF Done:  E(RB3LYP) =  -887.640029987     A.U. after   10 cycles
 SCF Done:  E(RB3LYP) =  -887.640062108     A.U. after   10 cycles
 SCF Done:  E(RB3LYP) =  -887.640067734     A.U. after    9 cycles
 SCF Done:  E(RB3LYP) =  -887.640068116     A.U. after    7 cycles
 SCF Done:  E(RB3LYP) =  -887.640068202     A.U. after    7 cycles
 SCF Done:  E(RB3LYP) =  -887.640068225     A.U. after    5 cycles
 Optimization completed.
    -- Stationary point found.
 Normal termination of Gaussian 16 at Mon May 22 18:35:42 2023.

 ----------------------------------------------------------------------
 #N Geom=AllCheck Guess=TCheck SCRF=Check GenChk RB3LYP/6-31G(2df,p) Fr
 eq
 ----------------------------------------------------------------------

 Structure from the checkpoint file:  "CtCC1CCOCCC1ONCCNCCCCCC.chk"
 -------------------
 Title Card Required
 -------------------
 Charge =  0 Multiplicity = 1

                         Standard orientation:
 ---------------------------------------------------------------------
 Center     Atomic      Atomic             Coordinates (Angstroms)
 Number     Number       Type             X           Y           Z
 ---------------------------------------------------------------------
      1          6           0        3.436506    3.270325    0.106670
      2          6           0        3.931323    2.195462   -0.111035
      3          6           0        4.588902    0.911352   -0.352198
      4          6           0        5.851716    0.814640    0.539685
      5          6           0        6.615988   -0.508954    0.473790
      6          8           0        5.893603   -1.551107    1.105878
      7          6           0        5.089357   -2.353683    0.261050
      8          6           0        4.218675   -1.585397   -0.743562
      9          6           0        3.604049   -0.286527   -0.198663
     10          8           0        2.426885   -0.033666   -0.964253
     11          7           0        1.364644    0.464777   -0.129169
     12          6           0        0.129408   -0.124809   -0.641166
     13          6           0       -1.067347    0.474306    0.096823
     14          7           0       -2.308244   -0.122212   -0.380650
     15          6           0       -3.500841    0.413914    0.267210
     16          6           0       -4.764763   -0.287005   -0.229940
     17          6           0       -6.049355    0.272646    0.389184
     18          6           0       -7.317533   -0.436834   -0.096992
     19          6           0       -8.605519    0.123500    0.515749
     20          6           0       -9.867547   -0.591934    0.026236
     21          1           0        3.001535    4.219766    0.298959
     22          1           0        4.907513    0.899696   -1.404820
     23          1           0        5.562938    0.976989    1.583771
     24          1           0        6.526189    1.634148    0.266351
     25          1           0        7.553725   -0.400592    1.030613
     26          1           0        6.883868   -0.772955   -0.560297
     27          1           0        4.451702   -2.921755    0.946442
     28          1           0        5.712400   -3.080350   -0.285950
     29          1           0        3.397143   -2.239759   -1.050422
     30          1           0        4.785110   -1.362994   -1.655420
     31          1           0        3.314853   -0.398798    0.851090
     32          1           0        1.354861    1.466488   -0.324842
     33          1           0        0.179088   -1.205233   -0.458537
     34          1           0        0.007113    0.020065   -1.723936
     35          1           0       -1.116738    1.554263   -0.102144
     36          1           0       -0.915435    0.365305    1.186244
     37          1           0       -2.273355   -1.126212   -0.225247
     38          1           0       -3.558443    1.485001    0.029141
     39          1           0       -3.452320    0.347798    1.372057
     40          1           0       -4.692801   -1.361340   -0.005227
     41          1           0       -4.804828   -0.204473   -1.322892
     42          1           0       -6.124581    1.345236    0.161959
     43          1           0       -5.990305    0.199638    1.484106
     44          1           0       -7.244368   -1.509516    0.131617
     45          1           0       -7.376339   -0.366359   -1.192183
     46          1           0       -8.678791    1.194806    0.285655
     47          1           0       -8.545456    0.053619    1.610092
     48          1           0       -9.972692   -0.509433   -1.061385
     49          1           0      -10.769556   -0.169730    0.480345
     50          1           0       -9.838838   -1.659100    0.273556
 ---------------------------------------------------------------------

 SCF Done:  E(RB3LYP) =  -887.640068225     A.U. after    1 cycles

 The electronic state is 1-A.
 Alpha  occ. eigenvalues --  -19.15404 -19.13561 -14.35487 -14.30905 -10.23101
 Alpha  occ. eigenvalues --  -10.22895 -10.22840 -10.20931 -10.20291 -10.19932
 Alpha  occ. eigenvalues --  -10.19919 -10.18677 -10.18149 -10.18050 -10.17603
 Alpha  occ. eigenvalues --  -10.17600 -10.17529 -10.17437 -10.17014 -10.16994
 Alpha  occ. eigenvalues --   -1.05235  -1.02885  -0.90198  -0.85455  -0.80923
 Alpha  occ. eigenvalues --   -0.80016  -0.77415  -0.75957  -0.73995  -0.71342
 Alpha  occ. eigenvalues --   -0.68610  -0.67876  -0.65345  -0.62068  -0.60323
 Alpha  occ. eigenvalues --   -0.58930  -0.58002  -0.57258  -0.56932  -0.53098
 Alpha  occ. eigenvalues --   -0.51098  -0.49750  -0.49158  -0.48268  -0.47282
 Alpha  occ. eigenvalues --   -0.46553  -0.46393  -0.44883  -0.44361  -0.43720
 Alpha  occ. eigenvalues --   -0.43102  -0.42350  -0.41953  -0.40913  -0.40470
 Alpha  occ. eigenvalues --   -0.39919  -0.38914  -0.37634  -0.37041  -0.36424
 Alpha  occ. eigenvalues --   -0.35837  -0.35696  -0.35247  -0.34615  -0.34285
 Alpha  occ. eigenvalues --   -0.34227  -0.32930  -0.32447  -0.32292  -0.31815
 Alpha  occ. eigenvalues --   -0.30611  -0.30104  -0.28024  -0.26688  -0.25441
 Alpha  occ. eigenvalues --   -0.24588  -0.22802  -0.21740
 Alpha virt. eigenvalues --    0.04968   0.05769   0.07687   0.08594   0.09237
 Alpha virt. eigenvalues --    0.09704   0.10436   0.10813   0.11025   0.11305
 Alpha virt. eigenvalues --    0.11909   0.12362   0.12871   0.13342   0.13846

 Mulliken charges:
               1
     1  C   -0.454872
     2  C    0.326163
     3  C   -0.204156
     4  C   -0.195454
     5  C   -0.102755
     6  O   -0.241659
     7  C   -0.074821
     8  C   -0.261830
     9  C    0.152678
    10  O   -0.292512
    11  N   -0.219236
    12  C   -0.117368
    13  C   -0.143353
    14  N   -0.299451
    15  C   -0.121403
    16  C   -0.199845
    17  C   -0.176371
    18  C   -0.158354
    19  C   -0.163484
    20  C   -0.379212
    21  H    0.192231
    22  H    0.104763
    23  H    0.121435
    24  H    0.105830
    25  H    0.106654
    26  H    0.090478
    27  H    0.111708
    28  H    0.089030
    29  H    0.112072
    30  H    0.102240
    31  H    0.096468
    32  H    0.239356
    33  H    0.098138
    34  H    0.105683
    35  H    0.098527
    36  H    0.089696
    37  H    0.210058
    38  H    0.098911
    39  H    0.073016
    40  H    0.086470
    41  H    0.105716
    42  H    0.092989
    43  H    0.092116
    44  H    0.089879
    45  H    0.091909
    46  H    0.093420
    47  H    0.092981
    48  H    0.113011
    49  H    0.110012
    50  H    0.112499
 Sum of Mulliken charges =  -0.00000

 Dipole moment (field-independent basis, Debye):
    X=             -0.2945    Y=             -0.0388    Z=             -0.1723  Tot=              0.3434
 Quadrupole moment (field-independent basis, Debye-Ang):
   XX=           -117.5486   YY=           -118.1391   ZZ=           -129.3865
   XY=              0.3984   XZ=             -7.7198   YZ=              1.7526

  Exact polarizability: 251.498  -7.911 193.277   1.063   6.461 150.281
 Approx polarizability: 272.141 -16.487 289.118  -3.501   9.762 243.427

                      1                      2                      3
                      A                      A                      A
 Frequencies --     12.2316                22.6559                24.8721
 Red. masses --      4.4209                 4.1959                 1.6785
 Frc consts  --      0.0004                 0.0013                 0.0006
 IR Inten    --      0.0200                 0.1198                 0.3401

                      4                      5                      6
                      A                      A                      A
 Frequencies --     33.6817                49.2434                63.3842
 Red. masses --      4.2491                 3.8342                 2.9047
 Frc consts  --      0.0028                 0.0055                 0.0069
 IR Inten    --      0.0962                 0.5294                 0.1300

                      7                      8                      9
                      A                      A                      A
 Frequencies --     74.8470                82.9615               107.3654
 Red. masses --      1.9170                 3.5538                 3.2023
 Frc consts  --      0.0063                 0.0144                 0.0217
 IR Inten    --      0.4480                 0.4519                 0.2104

                     10                     11                     12
                      A                      A                      A
 Frequencies --    112.7953               118.8657               129.9214
 Red. masses --      4.0820                 2.0666                 3.1600
 Frc consts  --      0.0306                 0.0172                 0.0314
 IR Inten    --      1.2830                 1.3175                 2.3508

                     13                     14                     15
                      A                      A                      A
 Frequencies --    134.5102               159.4271               161.0482
 Red. masses --      2.8573                 2.9516                 2.0554
 Frc consts  --      0.0305                 0.0442                 0.0314
 IR Inten    --      0.1566                 0.9802                 2.3883

                     16                     17                     18
                      A                      A                      A
 Frequencies --    167.3371               171.2377               206.1500
 Red. masses --      2.6724                 2.6315                 3.3386
 Frc consts  --      0.0441                 0.0455                 0.0836
 IR Inten    --      1.3208                 2.3321                 0.9559

                     19                     20                     21
                      A                      A                      A
 Frequencies --    225.4277               247.7867               258.4352
 Red. masses --      3.3657                 1.1215                 3.6058
 Frc consts  --      0.1008                 0.0406                 0.1419
 IR Inten    --      3.0096                 0.0072                 0.7393

                     22                     23                     24
                      A                      A                      A
 Frequencies --    288.5123               309.8788               320.1185
 Red. masses --      4.2292                 3.6944                 3.5610
 Frc consts  --      0.2074                 0.2090                 0.2150
 IR Inten    --      1.6906                 0.7804                 0.6877

                     25                     26                     27
                      A                      A                      A
 Frequencies --    358.4582               388.2114               395.4293
 Red. masses --      3.1728                 3.4160                 3.2761
 Frc consts  --      0.2402                 0.3033                 0.3018
 IR Inten    --      0.2508                 2.0263                 0.4204

                     28                     29                     30
                      A                      A                      A
 Frequencies --    438.3027               479.4339               485.5301
 Red. masses --      3.0816                 3.7481                 2.8070
 Frc consts  --      0.3488                 0.5076                 0.3899
 IR Inten    --      1.7860                 2.4676                 3.6220

                     31                     32                     33
                      A                      A                      A
 Frequencies --    527.0150               531.9743               541.1288
 Red. masses --      4.4472                 3.4294                 3.4990
 Frc consts  --      0.7277                 0.5718                 0.6037
 IR Inten    --      5.4640                 2.6082                 9.2946

                     34                     35                     36
                      A                      A                      A
 Frequencies --    548.0029               613.2442               621.6140
 Red. masses --      3.5234                 1.2668                 2.6998
 Frc consts  --      0.6234                 0.2807                 0.6146
 IR Inten    --      4.7155                39.6930                 4.7930

                     37                     38                     39
                      A                      A                      A
 Frequencies --    633.1585               733.1298               750.9640
 Red. masses --      1.2318                 1.0642                 1.0970
 Frc consts  --      0.2909                 0.3370                 0.3645
 IR Inten    --     56.6648                 3.4598                 0.0448

                     40                     41                     42
                      A                      A                      A
 Frequencies --    782.9080               787.8077               805.1865
 Red. masses --      1.6122                 1.5576                 1.1537
 Frc consts  --      0.5822                 0.5696                 0.4407
 IR Inten    --     18.1506                48.8511                 2.1226

                     43                     44                     45
                      A                      A                      A
 Frequencies --    827.5141               856.0874               870.1403
 Red. masses --      1.1480                 1.8029                 2.5828
 Frc consts  --      0.4632                 0.7785                 1.1522
 IR Inten    --      3.3036                 1.2699                 4.1121

                     46                     47                     48
                      A                      A                      A
 Frequencies --    896.7344               898.3405               902.3680
 Red. masses --      2.3472                 1.8347                 1.2426
 Frc consts  --      1.1121                 0.8724                 0.5961
 IR Inten    --     14.2225                 1.2600                 0.7294

                     49                     50                     51
                      A                      A                      A
 Frequencies --    907.7480               941.0652               980.0044
 Red. masses --      2.4698                 2.2123                 2.7939
 Frc consts  --      1.1991                 1.1543                 1.5809
 IR Inten    --     28.6893                32.9220                27.8789

                     52                     53                     54
                      A                      A                      A
 Frequencies --   1001.0269              1006.3747              1013.2048
 Red. masses --      2.1642                 1.7931                 2.0247
 Frc consts  --      1.2778                 1.0700                 1.2246
 IR Inten    --      0.1810                 9.4273                13.3787

                     55                     56                     57
                      A                      A                      A
 Frequencies --   1025.1406              1034.3417              1051.0975
 Red. masses --      1.9808                 3.1824                 2.5064
 Frc consts  --      1.2265                 2.0060                 1.6315
 IR Inten    --     10.4474                 8.6576                15.9648

                     58                     59                     60
                      A                      A                      A
 Frequencies --   1054.5541              1066.1959              1068.0526
 Red. masses --      2.4569                 2.4018                 2.9199
 Frc consts  --      1.6098                 1.6087                 1.9625
 IR Inten    --     29.1351                 1.1209                15.5340

                     61                     62                     63
                      A                      A                      A
 Frequencies --   1070.7548              1081.9474              1098.2804
 Red. masses --      2.4772                 2.8271                 2.6990
 Frc consts  --      1.6734                 1.9499                 1.9181
 IR Inten    --     11.9750                 6.5153                14.3151

                     64                     65                     66
                      A                      A                      A
 Frequencies --   1109.4356              1122.6260              1124.1513
 Red. masses --      2.7968                 2.3183                 1.5068
 Frc consts  --      2.0282                 1.7214                 1.1219
 IR Inten    --     13.0039                15.2988                 1.9256

                     67                     68                     69
                      A                      A                      A
 Frequencies --   1134.9246              1154.6276              1157.2481
 Red. masses --      2.5613                 2.8737                 3.9319
 Frc consts  --      1.9438                 2.2572                 3.1025
 IR Inten    --      0.5995                 4.9452                99.0137

                     70                     71                     72
                      A                      A                      A
 Frequencies --   1159.9125              1215.8041              1229.9443
 Red. masses --      3.7401                 1.8540                 1.4965
 Frc consts  --      2.9648                 1.6146                 1.3338
 IR Inten    --     98.5025                 0.4319                 5.8405

                     73                     74                     75
                      A                      A                      A
 Frequencies --   1238.6926              1244.5843              1256.5150
 Red. masses --      1.5310                 1.4127                 1.3767
 Frc consts  --      1.3840                 1.2893                 1.2806
 IR Inten    --      5.0433                33.0682                 2.5767

                     76                     77                     78
                      A                      A                      A
 Frequencies --   1257.0805              1266.9780              1285.3714
 Red. masses --      1.2073                 1.3368                 1.2460
 Frc consts  --      1.1241                 1.2643                 1.2129
 IR Inten    --     20.5050                18.2205                 2.1406

                     79                     80                     81
                      A                      A                      A
 Frequencies --   1301.8208              1302.9857              1309.9820
 Red. masses --      1.2654                 1.1733                 1.2248
 Frc consts  --      1.2636                 1.1736                 1.2384
 IR Inten    --      3.6147                 1.1892                 5.6781

                     82                     83                     84
                      A                      A                      A
 Frequencies --   1311.7238              1320.0096              1324.0817
 Red. masses --      1.2190                 1.0854                 1.2081
 Frc consts  --      1.2358                 1.1143                 1.2480
 IR Inten    --      2.8364                 3.3002                 2.8457

                     85                     86                     87
                      A                      A                      A
 Frequencies --   1328.2972              1333.5035              1334.6800
 Red. masses --      1.1839                 1.1741                 1.1492
 Frc consts  --      1.2308                 1.2301                 1.2061
 IR Inten    --      1.4423                 4.9211                 0.9286

                     88                     89                     90
                      A                      A                      A
 Frequencies --   1338.6329              1365.3289              1375.4649
 Red. masses --      1.2737                 1.2626                 1.3862
 Frc consts  --      1.3447                 1.3867                 1.5451
 IR Inten    --      1.0890                11.5237                 7.3737

                     91                     92                     93
                      A                      A                      A
 Frequencies --   1379.9209              1392.4940              1396.0264
 Red. masses --      1.3847                 1.3886                 1.2763
 Frc consts  --      1.5535                 1.5864                 1.4655
 IR Inten    --      7.0589                 3.5187                 7.3429

                     94                     95                     96
                      A                      A                      A
 Frequencies --   1397.5306              1402.1402              1413.6210
 Red. masses --      1.4958                 1.6126                 1.2603
 Frc consts  --      1.7213                 1.8679                 1.4838
 IR Inten    --      2.6875                 2.6713                 0.5904

                     97                     98                     99
                      A                      A                      A
 Frequencies --   1424.0310              1431.6024              1472.3974
 Red. masses --      1.2989                 1.5365                 1.1201
 Frc consts  --      1.5519                 1.8554                 1.4308
 IR Inten    --     10.9705                 1.7194                11.0745

                    100                    101                    102
                      A                      A                      A
 Frequencies --   1474.1113              1483.5858              1484.5994
 Red. masses --      1.1132                 1.0702                 1.0727
 Frc consts  --      1.4252                 1.3878                 1.3929
 IR Inten    --     10.5125                 0.4881                 0.0136

                    103                    104                    105
                      A                      A                      A
 Frequencies --   1487.5362              1492.2168              1497.3142
 Red. masses --      1.0837                 1.0752                 1.2142
 Frc consts  --      1.4129                 1.4106                 1.6039
 IR Inten    --      2.7865                 0.2912                53.9406

                    106                    107                    108
                      A                      A                      A
 Frequencies --   1499.8978              1501.4042              1502.6096
 Red. masses --      1.0403                 1.0783                 1.0765
 Frc consts  --      1.3789                 1.4321                 1.4320
 IR Inten    --      4.9387                 2.8652                 2.0165

                    109                    110                    111
                      A                      A                      A
 Frequencies --   1510.3770              1512.3813              1514.3818
 Red. masses --      1.0817                 1.0939                 1.0896
 Frc consts  --      1.4539                 1.4741                 1.4723
 IR Inten    --      3.1254                 2.5274                 2.8525

                    112                    113                    114
                      A                      A                      A
 Frequencies --   1522.5368              1529.9917              2227.1848
 Red. masses --      1.0929                 1.0899                 5.9556
 Frc consts  --      1.4926                 1.5032                17.4056
 IR Inten    --      7.5151                 1.2545                 4.2505

                    115                    116                    117
                      A                      A                      A
 Frequencies --   2906.2442              2936.6782              2967.7924
 Red. masses --      1.0728                 1.0708                 1.0714
 Frc consts  --      5.3389                 5.4409                 5.5601
 IR Inten    --     63.2764                60.8523                81.9732

                    118                    119                    120
                      A                      A                      A
 Frequencies --   2993.3342              2997.4269              2999.0368
 Red. masses --      1.0656                 1.0807                 1.0639
 Frc consts  --      5.6255                 5.7210                 5.6376
 IR Inten    --     38.6308                12.8074                 1.2618

                    121                    122                    123
                      A                      A                      A
 Frequencies --   3000.0078              3004.1735              3006.3043
 Red. masses --      1.0579                 1.0614                 1.0628
 Frc consts  --      5.6096                 5.6442                 5.6593
 IR Inten    --      0.7854                49.5083                12.0796

                    124                    125                    126
                      A                      A                      A
 Frequencies --   3015.3522              3015.9865              3021.3587
 Red. masses --      1.0727                 1.0747                 1.0963
 Frc consts  --      5.7463                 5.7599                 5.8965
 IR Inten    --     36.6396                26.9869                 4.9152

                    127                    128                    129
                      A                      A                      A
 Frequencies --   3024.6560              3028.0459              3035.0740
 Red. masses --      1.0809                 1.0360                 1.0994
 Frc consts  --      5.8264                 5.5969                 5.9669
 IR Inten    --     58.3930                44.0712                 2.0130

                    130                    131                    132
                      A                      A                      A
 Frequencies --   3036.6382              3038.2927              3052.8538
 Red. masses --      1.0659                 1.0643                 1.1023
 Frc consts  --      5.7912                 5.7888                 6.0529
 IR Inten    --     23.2466                 6.4649                 9.6744

                    133                    134                    135
                      A                      A                      A
 Frequencies --   3055.2715              3060.4505              3064.7043
 Red. masses --      1.1018                 1.0941                 1.0852
 Frc consts  --      6.0596                 6.0381                 6.0054
 IR Inten    --     43.6674                60.6374                 7.2843

                    136                    137                    138
                      A                      A                      A
 Frequencies --   3065.1467              3067.2783              3086.1924
 Red. masses --      1.0884                 1.1022                 1.1026
 Frc consts  --      6.0246                 6.1097                 6.1873
 IR Inten    --     22.3942                95.4888                15.8835

                    139                    140                    141
                      A                      A                      A
 Frequencies --   3091.6385              3094.1561              3099.6762
 Red. masses --      1.0988                 1.1020                 1.1010
 Frc consts  --      6.1879                 6.2162                 6.2323
 IR Inten    --     42.5261                60.5860                39.5773

                    142                    143                    144
                      A                      A                      A
 Frequencies --   3440.4219              3493.5643              3502.4696
 Red. masses --      1.0750                 1.0731                 1.1609
 Frc consts  --      7.4972                 7.7165                 8.3904
 IR Inten    --      5.7140                 0.5016                67.5521

 - Thermochemistry -
 -------------------
 Temperature   298.150 Kelvin.  Pressure   1.00000 Atm.
 Atom     1 has atomic number  6 and mass  12.00000

 Molecular mass:   282.23073 amu.
 Principal axes and moments of inertia in atomic units:
                           1         2         3
     Eigenvalues --  1861.15892********************
           X            1.00000  -0.00011  -0.00169
           Y            0.00014   0.99979   0.02038
           Z            0.00169  -0.02038   0.99979
 This molecule is an asymmetric top.
 Rotational symmetry number  1.
 Warning -- assumption of classical behavior for rotation
           may cause significant error
 Rotational temperatures (Kelvin)      0.04654     0.00317     0.00304
 Rotational constants (GHZ):           0.96969     0.06613     0.06333
 Zero-point vibrational energy    1175987.1 (Joules/Mol)
                                  281.06767 (Kcal/Mol)
 Warning -- explicit consideration of  35 degrees of freedom as
           vibrations may cause significant error
 Vibrational temperatures:     17.60    32.60    35.79    48.46    70.85
          (Kelvin)             91.20   107.69   119.36   154.47   162.29
                              171.02   186.93   193.53   229.38   231.71
                              240.76   246.37   296.60   324.34   356.51
                              371.83   415.10   445.85   460.58   515.74
                              558.55   568.93   630.62   689.80   698.57
                              758.26   765.39   778.56   788.45   882.32
                              894.36   910.97  1054.81  1080.47  1126.43
                             1133.48  1158.48  1190.61  1231.72  1251.94
                             1290.20  1292.51  1298.31  1306.05  1353.98
                             1410.01  1440.25  1447.95  1457.78  1474.95
                             1488.19  1512.29  1517.27  1534.02  1536.69
                             1540.58  1556.68  1580.18  1596.23  1615.21
                             1617.40  1632.90  1661.25  1665.02  1668.86
                             1749.27  1769.62  1782.20  1790.68  1807.84
                             1808.66  1822.90  1849.36  1873.03  1874.71
                             1884.77  1887.28  1899.20  1905.06  1911.12
                             1918.61  1920.31  1925.99  1964.40  1978.99
                             1985.40  2003.49  2008.57  2010.73  2017.37
                             2033.89  2048.86  2059.76  2118.45  2120.92
                             2134.55  2136.01  2140.23  2146.97  2154.30
                             2158.02  2160.19  2161.92  2173.10  2175.98
                             2178.86  2190.59  2201.32  3204.42  4181.44
                             4225.22  4269.99  4306.74  4312.63  4314.95
                             4316.34  4322.34  4325.40  4338.42  4339.33
                             4347.06  4351.81  4356.68  4366.79  4369.05
                             4371.43  4392.38  4395.85  4403.31  4409.43
                             4410.06  4413.13  4440.34  4448.18  4451.80
                             4459.74  4950.00  5026.46  5039.27

 Zero-point correction=                           0.447910 (Hartree/Particle)
 Thermal correction to Energy=                    0.471522
 Thermal correction to Enthalpy=                  0.472466
 Thermal correction to Gibbs Free Energy=         0.390829
 Sum of electronic and zero-point Energies=           -887.192158
 Sum of electronic and thermal Energies=              -887.168546
 Sum of electronic and thermal Enthalpies=            -887.167602
 Sum of electronic and thermal Free Energies=         -887.249239

                     E (Thermal)             CV                S
                      KCal/Mol        Cal/Mol-Kelvin    Cal/Mol-Kelvin
 Total                  295.884             85.969            171.819
 Electronic               0.000              0.000              0.000
 Translational            0.889              2.981             42.811
 Rotational               0.889              2.981             35.625
 Vibrational            294.107             80.007             93.384
 Vibration     1          0.593              1.987              7.611
 Vibration     2          0.593              1.985              6.387
 Vibration     3          0.593              1.985              6.201
 Vibration     4          0.594              1.983              5.600
 Vibration     5          0.595              1.978              4.848
 Vibration     6          0.597              1.972              4.349
 Vibration     7          0.599              1.966              4.022
 Vibration     8          0.600              1.961              3.820
 Vibration     9          0.606              1.943              3.316
 Vibration    10          0.607              1.939              3.220
 Vibration    11          0.609              1.934              3.119
 Vibration    12          0.612              1.923              2.947
 Vibration    13          0.613              1.919              2.881
 Vibration    14          0.621              1.892              2.557
 Vibration    15          0.622              1.890              2.537
 Vibration    16          0.624              1.883              2.465
 Vibration    17          0.626              1.878              2.422
 Vibration    18          0.641              1.831              2.078
 Vibration    19          0.650              1.802              1.915
 Vibration    20          0.661              1.766              1.746
 Vibration    21          0.667              1.748              1.672
 Vibration    22          0.685              1.695              1.483
 Vibration    23          0.699              1.655              1.363
 Vibration    24          0.706              1.635              1.309
 Vibration    25          0.733              1.558              1.129
 Vibration    26          0.756              1.495              1.007
 Vibration    27          0.762              1.480              0.980
 Vibration    28          0.798              1.387              0.832
 Vibration    29          0.836              1.296              0.712
 Vibration    30          0.842              1.282              0.695
 Vibration    31          0.882              1.190              0.594
 Vibration    32          0.887              1.179              0.583
 Vibration    33          0.896              1.159              0.563
 Vibration    34          0.903              1.144              0.548
 Vibration    35          0.973              1.004              0.427

 Optimization completed.
    -- Stationary point found.
 Normal termination of Gaussian 16 at Tue May 23 01:01:32 2023.
