 Gaussian 16, Revision A.03,
 Gaussian 16:  ES64L-G16RevA.03 25-Dec-2016

 -----------------------------
 # opt freq b3lyp/6-31g(2df,p)
 -----------------------------

 -------------------
 Title Card Required
 -------------------
 Symbolic Z-matrix:
 Charge =  0 Multiplicity = 1

 SCF Done:  E(RB3LYP) =  -800.215495172     A.U. after   15 cycles
 SCF Done:  E(RB3LYP) =  -800.242111118     A.U. after   14 cycles
 SCF Done:  E(RB3LYP) =  -800.236861879     A.U. after   15 cycles
 SCF Done:  E(RB3LYP) =  -800.258511022     A.U. after   14 cycles
 SCF Done:  E(RB3LYP) =  -800.260030189     A.U. after   14 cycles
 SCF Done:  E(RB3LYP) =  -800.268183741     A.U. after   13 cycles
 SCF Done:  E(RB3LYP) =  -800.271131132     A.U. after   13 cycles
 SCF Done:  E(RB3LYP) =  -800.274616987     A.U. after   14 cycles
 SCF Done:  E(RB3LYP) =  -800.277237451     A.U. after   13 cycles
 SCF Done:  E(RB3LYP) =  -800.282768154     A.U. after   13 cycles
 SCF Done:  E(RB3LYP) =  -800.288376162     A.U. after   11 cycles
 SCF Done:  E(RB3LYP) =  -800.288463924     A.U. after   10 cycles
 SCF Done:  E(RB3LYP) =  -800.288489529     A.U. after   10 cycles
 SCF Done:  E(RB3LYP) =  -800.288498409     A.U. after    9 cycles
 SCF Done:  E(RB3LYP) =  -800.288501064     A.U. after    8 cycles
 SCF Done:  E(RB3LYP) =  -800.288502902     A.U. after    8 cycles
 SCF Done:  E(RB3LYP) =  -800.288504447     A.U. after    8 cycles
 SCF Done:  E(RB3LYP) =  -800.288504763     A.U. after    7 cycles
 SCF Done:  E(RB3LYP) =  -800.288504834     A.U. after    6 cycles
 Optimization completed.
    -- Stationary point found.
 Normal termination of Gaussian 16 at Mon May 29 04:46:17 2023.

 ----------------------------------------------------------------------
 #N Geom=AllCheck Guess=TCheck SCRF=Check GenChk RB3LYP/6-31G(2df,p) Fr
 eq
 ----------------------------------------------------------------------

 Structure from the checkpoint file:  "CtCC1CqCqNrCNOrdCCdCNdC1CqNrCdC.chk"
 -------------------
 Title Card Required
 -------------------
 Charge =  0 Multiplicity = 1

                         Standard orientation:
 ---------------------------------------------------------------------
 Center     Atomic      Atomic             Coordinates (Angstroms)
 Number     Number       Type             X           Y           Z
 ---------------------------------------------------------------------
      1          6           0        0.891074    2.932289   -2.058526
      2          6           0        0.687649    1.896931   -1.483166
      3          6           0        0.443129    0.603447   -0.845856
      4          6           0       -0.805492    0.561562    0.024352
      5          6           0       -1.902107   -0.386901   -0.432743
      6          7           0       -1.562543   -1.817320   -0.248199
      7          6           0       -3.266374   -0.138335    0.221423
      8          7           0       -4.260400   -0.960900   -0.465078
      9          8           0       -5.444849   -0.981370    0.354991
     10          6           0       -0.895090    1.349287    1.123580
     11          6           0        0.147674    2.170741    1.667405
     12          6           0        1.485420    1.951285    1.538577
     13          7           0        2.069997    0.829766    1.016311
     14          6           0        1.608434    0.139033    0.046865
     15          6           0        2.270744   -1.183377   -0.331200
     16          7           0        3.124283   -1.025496   -1.519046
     17          6           0        3.032709   -1.795511    0.817506
     18          6           0        4.211667   -2.396989    0.713961
     19          1           0        1.066709    3.857356   -2.549517
     20          1           0        0.323282   -0.134966   -1.648083
     21          1           0       -2.042421   -0.252128   -1.513432
     22          1           0       -1.158482   -1.961014    0.673193
     23          1           0       -0.878560   -2.130376   -0.928463
     24          1           0       -3.549993    0.913705    0.118738
     25          1           0       -3.224670   -0.374472    1.296546
     26          1           0       -3.914008   -1.918682   -0.420628
     27          1           0       -6.113312   -0.618230   -0.235220
     28          1           0       -1.845457    1.386384    1.648670
     29          1           0       -0.155786    2.983104    2.321941
     30          1           0        2.180582    2.621592    2.037272
     31          1           0        1.466206   -1.878867   -0.616369
     32          1           0        3.813063   -0.300849   -1.332039
     33          1           0        2.578721   -0.710993   -2.316000
     34          1           0        2.536418   -1.722490    1.780924
     35          1           0        4.722631   -2.478742   -0.238679
     36          1           0        4.697886   -2.832500    1.580235
 ---------------------------------------------------------------------

 SCF Done:  E(RB3LYP) =  -800.288504834     A.U. after    1 cycles

 The electronic state is 1-A.
 Alpha  occ. eigenvalues --  -19.15052 -14.35276 -14.33171 -14.33025 -14.32604
 Alpha  occ. eigenvalues --  -10.24340 -10.23188 -10.23137 -10.22978 -10.21557
 Alpha  occ. eigenvalues --  -10.20795 -10.20421 -10.19318 -10.18817 -10.18726
 Alpha  occ. eigenvalues --  -10.18370 -10.17742 -10.17108  -1.04192  -0.94983
 Alpha  occ. eigenvalues --   -0.90750  -0.89711  -0.82907  -0.82549  -0.79553
 Alpha  occ. eigenvalues --   -0.76855  -0.74639  -0.71503  -0.69481  -0.67873
 Alpha  occ. eigenvalues --   -0.63622  -0.60683  -0.56861  -0.55446  -0.53201
 Alpha  occ. eigenvalues --   -0.52501  -0.51953  -0.51033  -0.50521  -0.48773
 Alpha  occ. eigenvalues --   -0.48194  -0.46404  -0.46225  -0.45454  -0.44059
 Alpha  occ. eigenvalues --   -0.43862  -0.42487  -0.41392  -0.40423  -0.39633
 Alpha  occ. eigenvalues --   -0.38677  -0.38298  -0.36934  -0.36019  -0.34864
 Alpha  occ. eigenvalues --   -0.34271  -0.29789  -0.28545  -0.28392  -0.27217
 Alpha  occ. eigenvalues --   -0.26388  -0.26284  -0.25418  -0.24560  -0.23185
 Alpha  occ. eigenvalues --   -0.21577
 Alpha virt. eigenvalues --   -0.04375  -0.00270   0.01322   0.04147   0.04657
 Alpha virt. eigenvalues --    0.06353   0.08397   0.08761   0.09833   0.10630
 Alpha virt. eigenvalues --    0.10681   0.12040   0.12423   0.13499   0.13895

 Mulliken charges:
               1
     1  C   -0.455608
     2  C    0.356121
     3  C   -0.406104
     4  C    0.240129
     5  C   -0.111077
     6  N   -0.516267
     7  C   -0.090641
     8  N   -0.240044
     9  O   -0.422946
    10  C   -0.155408
    11  C   -0.099549
    12  C   -0.040926
    13  N   -0.245076
    14  C    0.277151
    15  C   -0.097079
    16  N   -0.505366
    17  C    0.041410
    18  C   -0.339377
    19  H    0.197951
    20  H    0.094246
    21  H    0.103793
    22  H    0.233350
    23  H    0.239999
    24  H    0.108297
    25  H    0.095352
    26  H    0.246740
    27  H    0.297972
    28  H    0.102009
    29  H    0.095199
    30  H    0.106090
    31  H    0.085293
    32  H    0.241862
    33  H    0.236385
    34  H    0.096512
    35  H    0.120590
    36  H    0.109017
 Sum of Mulliken charges =  -0.00000

 Dipole moment (field-independent basis, Debye):
    X=              0.1092    Y=              1.0916    Z=             -0.9128  Tot=              1.4272
 Quadrupole moment (field-independent basis, Debye-Ang):
   XX=           -112.2442   YY=           -103.7546   ZZ=           -103.3246
   XY=             -1.4079   XZ=              0.3753   YZ=             -0.8113

  Exact polarizability: 208.483 -11.095 167.522  -1.970   7.073 146.659
 Approx polarizability: 297.594 -12.118 265.565  -2.957  25.264 244.517

                      1                      2                      3
                      A                      A                      A
 Frequencies --     29.0061                45.7886                56.3040
 Red. masses --      4.6168                 3.9581                 4.0469
 Frc consts  --      0.0023                 0.0049                 0.0076
 IR Inten    --      0.1488                 0.2526                 0.0437

                      4                      5                      6
                      A                      A                      A
 Frequencies --     67.8983                86.5799               103.5773
 Red. masses --      4.1669                 3.7581                 4.2657
 Frc consts  --      0.0113                 0.0166                 0.0270
 IR Inten    --      0.0826                 0.0368                 0.6317

                      7                      8                      9
                      A                      A                      A
 Frequencies --    110.7767               128.0449               137.6970
 Red. masses --      3.6218                 4.2086                 4.1594
 Frc consts  --      0.0262                 0.0407                 0.0465
 IR Inten    --      0.3120                 1.1382                 0.4531

                     10                     11                     12
                      A                      A                      A
 Frequencies --    163.6615               186.1533               247.7892
 Red. masses --      3.0214                 3.2159                 3.1610
 Frc consts  --      0.0477                 0.0657                 0.1144
 IR Inten    --      1.2764                 1.8078                 3.0439

                     13                     14                     15
                      A                      A                      A
 Frequencies --    258.6180               262.1908               265.8624
 Red. masses --      3.1955                 1.6565                 3.2111
 Frc consts  --      0.1259                 0.0671                 0.1337
 IR Inten    --      2.0010                17.5792                 7.6991

                     16                     17                     18
                      A                      A                      A
 Frequencies --    277.7583               285.7732               292.2533
 Red. masses --      2.8147                 2.9531                 1.3728
 Frc consts  --      0.1279                 0.1421                 0.0691
 IR Inten    --      3.2339                11.5355                17.3132

                     19                     20                     21
                      A                      A                      A
 Frequencies --    318.7524               322.5769               372.4356
 Red. masses --      1.2305                 2.4694                 5.2175
 Frc consts  --      0.0737                 0.1514                 0.4264
 IR Inten    --     88.5204                 4.4730                 6.9467

                     22                     23                     24
                      A                      A                      A
 Frequencies --    374.6373               402.3075               414.9359
 Red. masses --      3.7205                 3.3160                 4.9338
 Frc consts  --      0.3077                 0.3162                 0.5005
 IR Inten    --      8.6241                 3.0766                 2.6154

                     25                     26                     27
                      A                      A                      A
 Frequencies --    493.5234               525.7629               539.7782
 Red. masses --      6.2379                 2.3684                 2.6263
 Frc consts  --      0.8952                 0.3857                 0.4508
 IR Inten    --      4.9661                 8.5541                 2.5246

                     28                     29                     30
                      A                      A                      A
 Frequencies --    543.7223               584.4596               628.8658
 Red. masses --      4.0602                 3.5743                 2.1939
 Frc consts  --      0.7072                 0.7194                 0.5112
 IR Inten    --      9.6358                 2.0817                28.1816

                     31                     32                     33
                      A                      A                      A
 Frequencies --    631.9183               637.6526               670.8715
 Red. masses --      1.3476                 1.2466                 4.7414
 Frc consts  --      0.3171                 0.2986                 1.2573
 IR Inten    --     16.2503                35.7781                 7.8306

                     34                     35                     36
                      A                      A                      A
 Frequencies --    714.2312               763.9125               800.7139
 Red. masses --      3.2894                 3.0489                 1.4114
 Frc consts  --      0.9886                 1.0483                 0.5331
 IR Inten    --     30.2238                 2.7279                22.7381

                     37                     38                     39
                      A                      A                      A
 Frequencies --    823.9216               856.0913               871.1281
 Red. masses --      2.3316                 2.8861                 3.4155
 Frc consts  --      0.9326                 1.2463                 1.5271
 IR Inten    --    100.2491               111.7168                39.0213

                     40                     41                     42
                      A                      A                      A
 Frequencies --    881.9805               895.8732               901.9442
 Red. masses --      2.4935                 1.9482                 1.9869
 Frc consts  --      1.1428                 0.9212                 0.9523
 IR Inten    --     58.9092               127.9491                63.4251

                     43                     44                     45
                      A                      A                      A
 Frequencies --    919.2000               938.2416               942.6391
 Red. masses --      3.0809                 2.9612                 2.1775
 Frc consts  --      1.5337                 1.5359                 1.1400
 IR Inten    --     36.2498                23.5075                 9.9444

                     46                     47                     48
                      A                      A                      A
 Frequencies --    967.5586               969.6188               985.0248
 Red. masses --      1.3692                 1.3524                 2.1134
 Frc consts  --      0.7552                 0.7491                 1.2082
 IR Inten    --     15.4493                14.6188                 2.2110

                     49                     50                     51
                      A                      A                      A
 Frequencies --   1011.1645              1031.2277              1040.0338
 Red. masses --      1.9897                 1.4883                 1.2218
 Frc consts  --      1.1986                 0.9325                 0.7786
 IR Inten    --      2.7264                20.0331                17.1186

                     52                     53                     54
                      A                      A                      A
 Frequencies --   1044.0047              1053.8622              1091.4168
 Red. masses --      2.4810                 2.9959                 2.4448
 Frc consts  --      1.5932                 1.9604                 1.7158
 IR Inten    --     40.0111                48.3467                25.9664

                     55                     56                     57
                      A                      A                      A
 Frequencies --   1108.1897              1133.6163              1139.8781
 Red. masses --      2.2684                 1.7304                 1.6282
 Frc consts  --      1.6413                 1.3102                 1.2465
 IR Inten    --      8.7000                 4.6301                 5.3482

                     58                     59                     60
                      A                      A                      A
 Frequencies --   1150.8387              1155.0787              1207.6066
 Red. masses --      2.1165                 1.9248                 1.9731
 Frc consts  --      1.6516                 1.5130                 1.6953
 IR Inten    --      3.0807                36.8000                 1.5989

                     61                     62                     63
                      A                      A                      A
 Frequencies --   1230.1027              1266.6645              1270.5323
 Red. masses --      1.5750                 1.2368                 1.3227
 Frc consts  --      1.4042                 1.1691                 1.2580
 IR Inten    --     22.1418                39.4125                 6.6669

                     64                     65                     66
                      A                      A                      A
 Frequencies --   1304.0857              1309.8529              1316.6444
 Red. masses --      1.2697                 1.4589                 1.4179
 Frc consts  --      1.2722                 1.4748                 1.4483
 IR Inten    --      3.6964                 4.4921                 0.4826

                     67                     68                     69
                      A                      A                      A
 Frequencies --   1332.5268              1336.5262              1359.9290
 Red. masses --      1.2984                 1.4548                 1.5009
 Frc consts  --      1.3583                 1.5311                 1.6355
 IR Inten    --      1.1608                 7.0953                 7.0452

                     70                     71                     72
                      A                      A                      A
 Frequencies --   1384.4003              1387.4672              1388.1207
 Red. masses --      1.3315                 1.2393                 1.3679
 Frc consts  --      1.5035                 1.4056                 1.5530
 IR Inten    --      6.8527                49.9582                 2.2192

                     73                     74                     75
                      A                      A                      A
 Frequencies --   1405.3835              1443.2574              1460.5391
 Red. masses --      1.3377                 1.2208                 1.6628
 Frc consts  --      1.5567                 1.4982                 2.0898
 IR Inten    --      4.3349                10.3798                 2.2261

                     76                     77                     78
                      A                      A                      A
 Frequencies --   1497.3610              1516.0261              1569.8133
 Red. masses --      1.1041                 1.0786                 7.0411
 Frc consts  --      1.4586                 1.4605                10.2233
 IR Inten    --     15.7323                 4.7593                 9.4662

                     79                     80                     81
                      A                      A                      A
 Frequencies --   1646.5853              1648.9251              1662.6038
 Red. masses --      1.1123                 1.1320                 4.3831
 Frc consts  --      1.7767                 1.8135                 7.1385
 IR Inten    --     23.5669                24.3533                 9.5528

                     82                     83                     84
                      A                      A                      A
 Frequencies --   1693.8815              1717.9649              2232.8086
 Red. masses --      8.8080                 4.7612                 5.9335
 Frc consts  --     14.8900                 8.2792                17.4286
 IR Inten    --     30.6689                 4.8412                 1.3975

                     85                     86                     87
                      A                      A                      A
 Frequencies --   2979.1648              2983.6850              3019.1607
 Red. masses --      1.0686                 1.0801                 1.0818
 Frc consts  --      5.5879                 5.6654                 5.8101
 IR Inten    --     30.2552                22.2729                 8.1256

                     88                     89                     90
                      A                      A                      A
 Frequencies --   3026.0165              3075.3380              3151.4108
 Red. masses --      1.0818                 1.0932                 1.0829
 Frc consts  --      5.8362                 6.0914                 6.3366
 IR Inten    --     29.9508                22.8449                 0.4210

                     91                     92                     93
                      A                      A                      A
 Frequencies --   3153.2892              3163.6280              3175.3011
 Red. masses --      1.0589                 1.0881                 1.0917
 Frc consts  --      6.2034                 6.4161                 6.4850
 IR Inten    --      8.9968                20.3594                 6.7083

                     94                     95                     96
                      A                      A                      A
 Frequencies --   3175.8397              3242.1081              3468.4287
 Red. masses --      1.0933                 1.1147                 1.0741
 Frc consts  --      6.4967                 6.9034                 7.6133
 IR Inten    --     26.6093                 6.6536                 8.7595

                     97                     98                     99
                      A                      A                      A
 Frequencies --   3486.3401              3494.4367              3502.6493
 Red. masses --      1.0491                 1.0493                 1.1617
 Frc consts  --      7.5131                 7.5492                 8.3974
 IR Inten    --      4.0469                 1.7530                72.4988

                    100                    101                    102
                      A                      A                      A
 Frequencies --   3570.4032              3584.7350              3807.0500
 Red. masses --      1.0927                 1.0930                 1.0683
 Frc consts  --      8.2068                 8.2750                 9.1224
 IR Inten    --      1.4210                 2.1987                43.4496

 - Thermochemistry -
 -------------------
 Temperature   298.150 Kelvin.  Pressure   1.00000 Atm.
 Atom     1 has atomic number  6 and mass  12.00000

 Molecular mass:   246.14806 amu.
 Principal axes and moments of inertia in atomic units:
                           1         2         3
     Eigenvalues --  3021.600567320.122358382.66327
           X            0.99993  -0.01189  -0.00125
           Y            0.01190   0.99988   0.00941
           Z            0.00114  -0.00942   0.99995
 This molecule is an asymmetric top.
 Rotational symmetry number  1.
 Warning -- assumption of classical behavior for rotation
           may cause significant error
 Rotational temperatures (Kelvin)      0.02866     0.01183     0.01033
 Rotational constants (GHZ):           0.59728     0.24655     0.21529
 Zero-point vibrational energy     785395.8 (Joules/Mol)
                                  187.71409 (Kcal/Mol)
 Warning -- explicit consideration of  29 degrees of freedom as
           vibrations may cause significant error
 Vibrational temperatures:     41.73    65.88    81.01    97.69   124.57
          (Kelvin)            149.02   159.38   184.23   198.12   235.47
                              267.83   356.51   372.09   377.23   382.52
                              399.63   411.16   420.49   458.61   464.12
                              535.85   539.02   578.83   597.00   710.07
                              756.46   776.62   782.30   840.91   904.80
                              909.19   917.44   965.23  1027.62  1099.10
                             1152.05  1185.44  1231.72  1253.36  1268.97
                             1288.96  1297.70  1322.52  1349.92  1356.25
                             1392.10  1395.07  1417.23  1454.84  1483.71
                             1496.38  1502.09  1516.27  1570.31  1594.44
                             1631.02  1640.03  1655.80  1661.90  1737.48
                             1769.84  1822.45  1828.01  1876.29  1884.59
                             1894.36  1917.21  1922.96  1956.63  1991.84
                             1996.26  1997.20  2022.03  2076.53  2101.39
                             2154.37  2181.22  2258.61  2369.07  2372.44
                             2392.12  2437.12  2471.77  3212.51  4286.35
                             4292.86  4343.90  4353.76  4424.73  4534.18
                             4536.88  4551.76  4568.55  4569.32  4664.67
                             4990.30  5016.07  5027.72  5039.53  5137.01
                             5157.63  5477.50

 Zero-point correction=                           0.299141 (Hartree/Particle)
 Thermal correction to Energy=                    0.318276
 Thermal correction to Enthalpy=                  0.319221
 Thermal correction to Gibbs Free Energy=         0.251572
 Sum of electronic and zero-point Energies=           -799.989363
 Sum of electronic and thermal Energies=              -799.970228
 Sum of electronic and thermal Enthalpies=            -799.969284
 Sum of electronic and thermal Free Energies=         -800.036933

                     E (Thermal)             CV                S
                      KCal/Mol        Cal/Mol-Kelvin    Cal/Mol-Kelvin
 Total                  199.721             72.019            142.379
 Electronic               0.000              0.000              0.000
 Translational            0.889              2.981             42.403
 Rotational               0.889              2.981             33.583
 Vibrational            197.944             66.058             66.394
 Vibration     1          0.593              1.984              5.896
 Vibration     2          0.595              1.979              4.991
 Vibration     3          0.596              1.975              4.583
 Vibration     4          0.598              1.970              4.213
 Vibration     5          0.601              1.959              3.736
 Vibration     6          0.605              1.946              3.386
 Vibration     7          0.607              1.941              3.255
 Vibration     8          0.611              1.925              2.975
 Vibration     9          0.614              1.916              2.836
 Vibration    10          0.623              1.887              2.507
 Vibration    11          0.632              1.859              2.266
 Vibration    12          0.661              1.766              1.746
 Vibration    13          0.667              1.748              1.671
 Vibration    14          0.669              1.742              1.647
 Vibration    15          0.672              1.736              1.623
 Vibration    16          0.679              1.715              1.547
 Vibration    17          0.684              1.700              1.499
 Vibration    18          0.688              1.688              1.461
 Vibration    19          0.705              1.638              1.316
 Vibration    20          0.708              1.630              1.297
 Vibration    21          0.744              1.529              1.070
 Vibration    22          0.746              1.524              1.061
 Vibration    23          0.768              1.465              0.954
 Vibration    24          0.778              1.438              0.909
 Vibration    25          0.849              1.264              0.675
 Vibration    26          0.881              1.193              0.597
 Vibration    27          0.895              1.162              0.566
 Vibration    28          0.899              1.153              0.557
 Vibration    29          0.941              1.065              0.477

                           ! Non-Optimized Parameters !
 Normal termination of Gaussian 16 at Mon May 29 09:09:58 2023.
