 Gaussian 16, Revision A.03,
 Gaussian 16:  ES64L-G16RevA.03 25-Dec-2016

 -----------------------------
 # opt freq b3lyp/6-31g(2df,p)
 -----------------------------

 -------------------
 Title Card Required
 -------------------
 Symbolic Z-matrix:
 Charge =  0 Multiplicity = 1

 SCF Done:  E(RB3LYP) =  -1009.02288765     A.U. after   14 cycles
 SCF Done:  E(RB3LYP) =  -1009.04875279     A.U. after   12 cycles
 SCF Done:  E(RB3LYP) =  -1009.04957384     A.U. after   11 cycles
 SCF Done:  E(RB3LYP) =  -1009.04195234     A.U. after   13 cycles
 SCF Done:  E(RB3LYP) =  -1009.05078423     A.U. after   10 cycles
 SCF Done:  E(RB3LYP) =  -1009.04915757     A.U. after   12 cycles
 SCF Done:  E(RB3LYP) =  -1009.05005729     A.U. after   11 cycles
 SCF Done:  E(RB3LYP) =  -1009.05091028     A.U. after    9 cycles
 SCF Done:  E(RB3LYP) =  -1009.05112102     A.U. after    9 cycles
 SCF Done:  E(RB3LYP) =  -1009.05112864     A.U. after    9 cycles
 SCF Done:  E(RB3LYP) =  -1009.05120148     A.U. after   10 cycles
 SCF Done:  E(RB3LYP) =  -1009.05121455     A.U. after   10 cycles
 SCF Done:  E(RB3LYP) =  -1009.05120955     A.U. after   10 cycles
 SCF Done:  E(RB3LYP) =  -1009.05120650     A.U. after   10 cycles
 SCF Done:  E(RB3LYP) =  -1009.05121484     A.U. after    9 cycles
 SCF Done:  E(RB3LYP) =  -1009.05121589     A.U. after    8 cycles
 SCF Done:  E(RB3LYP) =  -1009.05121666     A.U. after    9 cycles
 SCF Done:  E(RB3LYP) =  -1009.05121668     A.U. after    7 cycles
 SCF Done:  E(RB3LYP) =  -1009.05121671     A.U. after    7 cycles
 Optimization completed on the basis of negligible forces.
    -- Stationary point found.
 Normal termination of Gaussian 16 at Tue May 23 01:24:28 2023.

 ----------------------------------------------------------------------
 #N Geom=AllCheck Guess=TCheck SCRF=Check GenChk RB3LYP/6-31G(2df,p) Fr
 eq
 ----------------------------------------------------------------------

 Structure from the checkpoint file:  "CtCCCPqCrCqCrCCCqCrCCCCqCrC.chk"
 -------------------
 Title Card Required
 -------------------
 Charge =  0 Multiplicity = 1

                         Standard orientation:
 ---------------------------------------------------------------------
 Center     Atomic      Atomic             Coordinates (Angstroms)
 Number     Number       Type             X           Y           Z
 ---------------------------------------------------------------------
      1          6           0       -8.299286   -1.372946    0.842221
      2          6           0       -7.437102   -0.642760    0.431315
      3          6           0       -6.368174    0.219747   -0.059368
      4          6           0       -4.975958   -0.435893    0.074242
      5         15           0       -3.608552    0.608104   -0.660898
      6          6           0       -3.547872    1.956126    0.622975
      7          6           0       -2.103533   -0.403126   -0.149912
      8          6           0       -2.144900   -1.797655   -0.795998
      9          6           0       -0.813503    0.360381   -0.528012
     10          6           0        0.447275   -0.165841    0.175546
     11          6           0        1.768888    0.487715   -0.277931
     12          6           0        1.807107    1.990258    0.039829
     13          6           0        2.963683   -0.261726    0.344734
     14          6           0        4.343679    0.127893   -0.201215
     15          6           0        5.473362   -0.727696    0.386462
     16          6           0        6.874712   -0.454628   -0.190802
     17          6           0        7.373453    0.964402    0.118000
     18          6           0        7.877904   -1.498406    0.319317
     19          1           0       -9.069513   -2.009499    1.200697
     20          1           0       -6.393379    1.168688    0.489881
     21          1           0       -6.553262    0.473071   -1.111000
     22          1           0       -4.991240   -1.387491   -0.464481
     23          1           0       -4.772281   -0.663634    1.127621
     24          1           0       -4.454324    2.563929    0.553992
     25          1           0       -2.703124    2.621609    0.429153
     26          1           0       -3.463234    1.564419    1.642860
     27          1           0       -2.134163   -0.517233    0.943384
     28          1           0       -2.242690   -1.722008   -1.885159
     29          1           0       -2.979995   -2.397752   -0.425350
     30          1           0       -1.229441   -2.359000   -0.584824
     31          1           0       -0.931501    1.422705   -0.291367
     32          1           0       -0.678353    0.306864   -1.616868
     33          1           0        0.530868   -1.247145    0.013386
     34          1           0        0.335078   -0.031093    1.261382
     35          1           0        1.837430    0.370212   -1.370431
     36          1           0        1.727116    2.160083    1.120902
     37          1           0        0.987541    2.529284   -0.443604
     38          1           0        2.738354    2.451483   -0.300339
     39          1           0        2.819429   -1.339116    0.185274
     40          1           0        2.949249   -0.115629    1.434899
     41          1           0        4.539361    1.186093    0.003044
     42          1           0        4.341933    0.021865   -1.295651
     43          1           0        5.230962   -1.787075    0.224615
     44          1           0        5.504389   -0.590610    1.477559
     45          1           0        6.809262   -0.558497   -1.284124
     46          1           0        7.430009    1.129969    1.201048
     47          1           0        6.718944    1.733069   -0.302850
     48          1           0        8.375823    1.124748   -0.292996
     49          1           0        7.980080   -1.442330    1.409971
     50          1           0        8.871356   -1.340914   -0.113833
     51          1           0        7.559191   -2.515682    0.068263
 ---------------------------------------------------------------------

 SCF Done:  E(RB3LYP) =  -1009.05121671     A.U. after    1 cycles

 The electronic state is 1-A.
 Alpha  occ. eigenvalues --  -77.06587 -10.20971 -10.19007 -10.18877 -10.18326
 Alpha  occ. eigenvalues --  -10.18239 -10.18078 -10.17970 -10.17777 -10.17637
 Alpha  occ. eigenvalues --  -10.17579 -10.17362 -10.17338 -10.17251 -10.16968
 Alpha  occ. eigenvalues --  -10.16813 -10.16785 -10.16640  -6.53556  -4.69821
 Alpha  occ. eigenvalues --   -4.69779  -4.69344  -0.82110  -0.80743  -0.80046
 Alpha  occ. eigenvalues --   -0.78459  -0.74559  -0.72917  -0.70638  -0.70448
 Alpha  occ. eigenvalues --   -0.67748  -0.67219  -0.64702  -0.64280  -0.59946
 Alpha  occ. eigenvalues --   -0.57152  -0.55792  -0.54952  -0.52646  -0.51895
 Alpha  occ. eigenvalues --   -0.47550  -0.46879  -0.46488  -0.45823  -0.44851
 Alpha  occ. eigenvalues --   -0.43816  -0.43184  -0.42911  -0.41897  -0.41396
 Alpha  occ. eigenvalues --   -0.41149  -0.40540  -0.40041  -0.38769  -0.38301
 Alpha  occ. eigenvalues --   -0.37748  -0.37543  -0.37008  -0.36413  -0.35635
 Alpha  occ. eigenvalues --   -0.35360  -0.34553  -0.33850  -0.33543  -0.32551
 Alpha  occ. eigenvalues --   -0.32051  -0.31586  -0.31493  -0.31291  -0.30739
 Alpha  occ. eigenvalues --   -0.30560  -0.28395  -0.26034  -0.25844  -0.22145
 Alpha virt. eigenvalues --    0.04301   0.05315   0.05707   0.07498   0.07611
 Alpha virt. eigenvalues --    0.08490   0.09267   0.10115   0.10642   0.11149
 Alpha virt. eigenvalues --    0.11596   0.12250   0.12713   0.13233   0.13501

 Mulliken charges:
               1
     1  C   -0.428588
     2  C    0.280246
     3  C   -0.370233
     4  C   -0.185044
     5  P   -0.022098
     6  C   -0.412846
     7  C    0.041954
     8  C   -0.421447
     9  C   -0.217694
    10  C   -0.202948
    11  C    0.026825
    12  C   -0.391447
    13  C   -0.180566
    14  C   -0.206238
    15  C   -0.162631
    16  C    0.042303
    17  C   -0.379820
    18  C   -0.387948
    19  H    0.192659
    20  H    0.131982
    21  H    0.145243
    22  H    0.124111
    23  H    0.109534
    24  H    0.129819
    25  H    0.133417
    26  H    0.118805
    27  H    0.076072
    28  H    0.128131
    29  H    0.119750
    30  H    0.117887
    31  H    0.099016
    32  H    0.102969
    33  H    0.092627
    34  H    0.089294
    35  H    0.067627
    36  H    0.108236
    37  H    0.114457
    38  H    0.115218
    39  H    0.086686
    40  H    0.088135
    41  H    0.100759
    42  H    0.089178
    43  H    0.086144
    44  H    0.087161
    45  H    0.068430
    46  H    0.108901
    47  H    0.112973
    48  H    0.108220
    49  H    0.109951
    50  H    0.107187
    51  H    0.107644
 Sum of Mulliken charges =  -0.00000

 Dipole moment (field-independent basis, Debye):
    X=              1.0864    Y=             -0.0688    Z=              0.9428  Tot=              1.4401
 Quadrupole moment (field-independent basis, Debye-Ang):
   XX=           -132.0258   YY=           -122.8878   ZZ=           -126.3055
   XY=              1.1022   XZ=             -5.1864   YZ=              1.3867

  Exact polarizability: 286.575  10.897 191.530  -8.605  -1.590 163.258
 Approx polarizability: 318.353  20.156 294.311 -13.412  -5.673 272.030

                      1                      2                      3
                      A                      A                      A
 Frequencies --     13.0932                16.2419                24.9567
 Red. masses --      3.2252                 3.3997                 4.0899
 Frc consts  --      0.0003                 0.0005                 0.0015
 IR Inten    --      0.1237                 0.0411                 0.0683

                      4                      5                      6
                      A                      A                      A
 Frequencies --     28.2380                51.6723                58.8534
 Red. masses --      2.9596                 3.1582                 2.4299
 Frc consts  --      0.0014                 0.0050                 0.0050
 IR Inten    --      0.0086                 0.1036                 0.0669

                      7                      8                      9
                      A                      A                      A
 Frequencies --     65.7685                76.7090                82.7422
 Red. masses --      3.3035                 2.4505                 3.1200
 Frc consts  --      0.0084                 0.0085                 0.0126
 IR Inten    --      0.0438                 0.3698                 0.0947

                     10                     11                     12
                      A                      A                      A
 Frequencies --     96.2767               104.8938               119.7996
 Red. masses --      2.0855                 2.2856                 2.5046
 Frc consts  --      0.0114                 0.0148                 0.0212
 IR Inten    --      0.1290                 0.0177                 0.0751

                     13                     14                     15
                      A                      A                      A
 Frequencies --    133.9596               150.5253               173.9541
 Red. masses --      2.1345                 2.7195                 1.6093
 Frc consts  --      0.0226                 0.0363                 0.0287
 IR Inten    --      0.1261                 0.0232                 0.2031

                     16                     17                     18
                      A                      A                      A
 Frequencies --    186.4444               201.1733               222.4864
 Red. masses --      1.8619                 1.5544                 1.2098
 Frc consts  --      0.0381                 0.0371                 0.0353
 IR Inten    --      0.1256                 0.0728                 0.0737

                     19                     20                     21
                      A                      A                      A
 Frequencies --    229.8181               231.6145               240.8390
 Red. masses --      1.8061                 1.2966                 1.6558
 Frc consts  --      0.0562                 0.0410                 0.0566
 IR Inten    --      0.1852                 0.0601                 0.0331

                     22                     23                     24
                      A                      A                      A
 Frequencies --    255.2662               263.3522               282.5317
 Red. masses --      1.5729                 1.9021                 2.6866
 Frc consts  --      0.0604                 0.0777                 0.1264
 IR Inten    --      0.0410                 0.1318                 0.2021

                     25                     26                     27
                      A                      A                      A
 Frequencies --    286.3606               318.3709               349.5236
 Red. masses --      2.5323                 3.3154                 3.2504
 Frc consts  --      0.1223                 0.1980                 0.2340
 IR Inten    --      0.0450                 0.1411                 2.9670

                     28                     29                     30
                      A                      A                      A
 Frequencies --    361.7413               381.0188               392.2768
 Red. masses --      3.2747                 2.4025                 2.6048
 Frc consts  --      0.2525                 0.2055                 0.2362
 IR Inten    --      0.1373                 0.0118                 0.2050

                     31                     32                     33
                      A                      A                      A
 Frequencies --    410.8548               429.6423               440.7760
 Red. masses --      1.9828                 2.2785                 2.2668
 Frc consts  --      0.1972                 0.2478                 0.2595
 IR Inten    --      0.1868                 0.7588                 0.5089

                     34                     35                     36
                      A                      A                      A
 Frequencies --    481.0584               505.0642               521.6948
 Red. masses --      4.9696                 3.1396                 2.6158
 Frc consts  --      0.6776                 0.4719                 0.4195
 IR Inten    --      5.9424                 2.5815                 0.6938

                     37                     38                     39
                      A                      A                      A
 Frequencies --    614.9263               631.0305               664.7097
 Red. masses --      1.1989                 1.2182                 3.7467
 Frc consts  --      0.2671                 0.2858                 0.9754
 IR Inten    --     43.0254                42.1579                 3.6640

                     40                     41                     42
                      A                      A                      A
 Frequencies --    695.0757               735.6031               739.2412
 Red. masses --      3.2082                 1.2360                 1.1280
 Frc consts  --      0.9132                 0.3940                 0.3632
 IR Inten    --      4.7831                 2.8572                 0.9981

                     43                     44                     45
                      A                      A                      A
 Frequencies --    745.8525               754.7940               801.8993
 Red. masses --      4.6256                 1.2559                 2.1038
 Frc consts  --      1.5161                 0.4216                 0.7971
 IR Inten    --      9.4126                 3.1508                 0.9126

                     46                     47                     48
                      A                      A                      A
 Frequencies --    840.3628               863.0112               864.4625
 Red. masses --      1.6870                 1.7580                 1.4577
 Frc consts  --      0.7019                 0.7714                 0.6418
 IR Inten    --      1.3185                 4.5413                 8.6323

                     49                     50                     51
                      A                      A                      A
 Frequencies --    878.1821               899.3536               923.8586
 Red. masses --      1.4638                 2.0084                 1.3942
 Frc consts  --      0.6651                 0.9571                 0.7011
 IR Inten    --     18.9130                 2.0394                 0.4302

                     52                     53                     54
                      A                      A                      A
 Frequencies --    926.6690               943.0501               944.0061
 Red. masses --      1.2010                 1.9795                 1.5199
 Frc consts  --      0.6076                 1.0372                 0.7980
 IR Inten    --      1.2054                 4.7690                 0.3612

                     55                     56                     57
                      A                      A                      A
 Frequencies --    950.2543               964.3163               978.1866
 Red. masses --      3.8505                 1.4375                 1.5950
 Frc consts  --      2.0485                 0.7876                 0.8992
 IR Inten    --      2.8405                 0.1546                17.4782

                     58                     59                     60
                      A                      A                      A
 Frequencies --    986.0544              1011.5911              1017.3995
 Red. masses --      1.7319                 1.7448                 2.7368
 Frc consts  --      0.9921                 1.0520                 1.6690
 IR Inten    --      0.2767                 3.4902                 2.8046

                     61                     62                     63
                      A                      A                      A
 Frequencies --   1025.0877              1037.0659              1047.1600
 Red. masses --      2.7361                 1.4748                 3.0723
 Frc consts  --      1.6940                 0.9345                 1.9849
 IR Inten    --      3.4384                 0.2824                 0.5896

                     64                     65                     66
                      A                      A                      A
 Frequencies --   1063.2507              1070.7224              1093.6416
 Red. masses --      2.0637                 1.6146                 1.9554
 Frc consts  --      1.3746                 1.0906                 1.3779
 IR Inten    --      1.0456                 0.3220                 1.0293

                     67                     68                     69
                      A                      A                      A
 Frequencies --   1111.9359              1150.5571              1164.9263
 Red. masses --      2.3356                 2.1847                 1.2007
 Frc consts  --      1.7014                 1.7040                 0.9600
 IR Inten    --      0.6224                 3.6411                 5.0296

                     70                     71                     72
                      A                      A                      A
 Frequencies --   1170.8868              1181.7644              1193.4185
 Red. masses --      1.9372                 1.7414                 1.7642
 Frc consts  --      1.5648                 1.4329                 1.4804
 IR Inten    --      1.2618                 9.4668                 8.4757

                     73                     74                     75
                      A                      A                      A
 Frequencies --   1208.2028              1223.2736              1232.4164
 Red. masses --      1.7818                 1.2907                 1.4901
 Frc consts  --      1.5324                 1.1380                 1.3334
 IR Inten    --      8.2718                 2.8474                 2.1580

                     76                     77                     78
                      A                      A                      A
 Frequencies --   1250.8354              1264.9616              1295.6323
 Red. masses --      1.3056                 1.2456                 1.2914
 Frc consts  --      1.2035                 1.1743                 1.2773
 IR Inten    --      1.8870                 0.4102                 4.0677

                     79                     80                     81
                      A                      A                      A
 Frequencies --   1305.4038              1305.6520              1317.7207
 Red. masses --      1.2111                 1.1492                 1.2369
 Frc consts  --      1.2160                 1.1542                 1.2654
 IR Inten    --      0.0532                 1.8052                 1.4214

                     82                     83                     84
                      A                      A                      A
 Frequencies --   1321.5552              1333.3149              1337.6253
 Red. masses --      1.2055                 1.1096                 1.2494
 Frc consts  --      1.2405                 1.1622                 1.3171
 IR Inten    --      2.8828                 0.5877                 0.0596

                     85                     86                     87
                      A                      A                      A
 Frequencies --   1345.0893              1351.3638              1361.9831
 Red. masses --      1.4043                 1.2300                 1.3428
 Frc consts  --      1.4970                 1.3234                 1.4676
 IR Inten    --      4.7184                 3.7633                 2.1466

                     88                     89                     90
                      A                      A                      A
 Frequencies --   1369.9189              1379.9224              1385.7129
 Red. masses --      1.3406                 1.3615                 1.4565
 Frc consts  --      1.4824                 1.5275                 1.6478
 IR Inten    --      3.9229                 2.1886                 0.2066

                     91                     92                     93
                      A                      A                      A
 Frequencies --   1391.9324              1398.7628              1402.7940
 Red. masses --      1.4592                 1.3713                 1.3181
 Frc consts  --      1.6658                 1.5808                 1.5282
 IR Inten    --      0.4833                 2.8669                 1.2225

                     94                     95                     96
                      A                      A                      A
 Frequencies --   1411.0593              1415.6657              1421.9836
 Red. masses --      1.2301                 1.2682                 1.2415
 Frc consts  --      1.4430                 1.4974                 1.4790
 IR Inten    --      0.7264                10.5545                 4.0792

                     97                     98                     99
                      A                      A                      A
 Frequencies --   1458.1852              1468.9084              1471.7536
 Red. masses --      1.0647                 1.0576                 1.0694
 Frc consts  --      1.3339                 1.3444                 1.3648
 IR Inten    --      0.6388                 2.9043                 1.7930

                    100                    101                    102
                      A                      A                      A
 Frequencies --   1475.5417              1478.2868              1479.9594
 Red. masses --      1.0663                 1.0751                 1.0934
 Frc consts  --      1.3679                 1.3843                 1.4110
 IR Inten    --      4.0593                 0.6831                 5.2571

                    103                    104                    105
                      A                      A                      A
 Frequencies --   1484.1135              1489.0301              1492.7463
 Red. masses --      1.0768                 1.0456                 1.0715
 Frc consts  --      1.3974                 1.3659                 1.4068
 IR Inten    --      2.3256                 0.7341                 0.6964

                    106                    107                    108
                      A                      A                      A
 Frequencies --   1494.9974              1497.5351              1498.9385
 Red. masses --      1.0584                 1.0632                 1.0599
 Frc consts  --      1.3937                 1.4049                 1.4030
 IR Inten    --      1.5802                 0.8522                 0.4542

                    109                    110                    111
                      A                      A                      A
 Frequencies --   1504.4228              1505.2063              1507.0624
 Red. masses --      1.0820                 1.0554                 1.0494
 Frc consts  --      1.4428                 1.4088                 1.4043
 IR Inten    --      0.4030                 3.2928                 2.6350

                    112                    113                    114
                      A                      A                      A
 Frequencies --   1510.3720              1512.4433              2236.7837
 Red. masses --      1.0503                 1.0591                 5.9371
 Frc consts  --      1.4116                 1.4274                17.5014
 IR Inten    --      4.3425                17.4152                 5.3545

                    115                    116                    117
                      A                      A                      A
 Frequencies --   2983.0986              2989.2661              2993.3011
 Red. masses --      1.0797                 1.0767                 1.0802
 Frc consts  --      5.6609                 5.6684                 5.7025
 IR Inten    --      6.0479                 6.7210                 6.4004

                    118                    119                    120
                      A                      A                      A
 Frequencies --   2995.2705              2997.0939              3004.0230
 Red. masses --      1.0638                 1.0630                 1.0644
 Frc consts  --      5.6234                 5.6259                 5.6593
 IR Inten    --      2.9876                10.7095                 6.3989

                    121                    122                    123
                      A                      A                      A
 Frequencies --   3010.5294              3021.1203              3022.4900
 Red. masses --      1.0679                 1.0360                 1.0596
 Frc consts  --      5.7025                 5.5713                 5.7032
 IR Inten    --     63.4125                30.8792                12.8871

                    124                    125                    126
                      A                      A                      A
 Frequencies --   3022.6974              3026.7236              3027.5286
 Red. masses --      1.0636                 1.0382                 1.0388
 Frc consts  --      5.7257                 5.6037                 5.6097
 IR Inten    --     37.3325                27.0214                15.6891

                    127                    128                    129
                      A                      A                      A
 Frequencies --   3028.5431              3031.0658              3031.7722
 Red. masses --      1.0456                 1.0822                 1.0933
 Frc consts  --      5.6503                 5.8579                 5.9208
 IR Inten    --     15.2491                27.8960                10.1359

                    130                    131                    132
                      A                      A                      A
 Frequencies --   3032.1536              3033.3014              3048.0467
 Red. masses --      1.0624                 1.0503                 1.0923
 Frc consts  --      5.7547                 5.6936                 5.9793
 IR Inten    --     11.8164                15.8513                13.0380

                    133                    134                    135
                      A                      A                      A
 Frequencies --   3055.0934              3071.8725              3076.2188
 Red. masses --      1.0989                 1.0990                 1.0987
 Frc consts  --      6.0433                 6.1102                 6.1260
 IR Inten    --      5.6971                20.4479                93.5135

                    136                    137                    138
                      A                      A                      A
 Frequencies --   3085.0602              3091.0928              3096.2633
 Red. masses --      1.1001                 1.0998                 1.0999
 Frc consts  --      6.1691                 6.1913                 6.2127
 IR Inten    --      7.3004                67.2976                20.5387

                    139                    140                    141
                      A                      A                      A
 Frequencies --   3096.3235              3096.7124              3097.8675
 Red. masses --      1.1013                 1.0998                 1.0951
 Frc consts  --      6.2206                 6.2138                 6.1917
 IR Inten    --     39.8197                21.4427                38.4412

                    142                    143                    144
                      A                      A                      A
 Frequencies --   3105.9320              3110.5343              3111.7285
 Red. masses --      1.0995                 1.0996                 1.1000
 Frc consts  --      6.2492                 6.2681                 6.2753
 IR Inten    --     54.1735                11.0515                43.9017

                    145                    146                    147
                      A                      A                      A
 Frequencies --   3112.9292              3125.0758              3507.8618
 Red. masses --      1.0988                 1.0997                 1.1618
 Frc consts  --      6.2736                 6.3275                 8.4227
 IR Inten    --     25.8944                13.3496                75.9483

 - Thermochemistry -
 -------------------
 Temperature   298.150 Kelvin.  Pressure   1.00000 Atm.
 Atom     1 has atomic number  6 and mass  12.00000

 Molecular mass:   268.23199 amu.
 Principal axes and moments of inertia in atomic units:
                           1         2         3
     Eigenvalues --  1394.14939********************
           X            1.00000  -0.00089  -0.00031
           Y            0.00089   0.99980   0.02022
           Z            0.00029  -0.02022   0.99980
 This molecule is an asymmetric top.
 Rotational symmetry number  1.
 Warning -- assumption of classical behavior for rotation
           may cause significant error
 Rotational temperatures (Kelvin)      0.06213     0.00369     0.00356
 Rotational constants (GHZ):           1.29451     0.07682     0.07419
 Zero-point vibrational energy    1211886.3 (Joules/Mol)
                                  289.64777 (Kcal/Mol)
 Warning -- explicit consideration of  37 degrees of freedom as
           vibrations may cause significant error
 Vibrational temperatures:     18.84    23.37    35.91    40.63    74.34
          (Kelvin)             84.68    94.63   110.37   119.05   138.52
                              150.92   172.36   192.74   216.57   250.28
                              268.25   289.44   320.11   330.66   333.24
                              346.51   367.27   378.91   406.50   412.01
                              458.06   502.89   520.47   548.20   564.40
                              591.13   618.16   634.18   692.14   726.67
                              750.60   884.74   907.91   956.37  1000.06
                             1058.37  1063.60  1073.12  1085.98  1153.75
                             1209.09  1241.68  1243.77  1263.51  1293.97
                             1329.23  1333.27  1356.84  1358.21  1367.20
                             1387.44  1407.39  1418.71  1455.45  1463.81
                             1474.87  1492.11  1506.63  1529.78  1540.53
                             1573.51  1599.83  1655.40  1676.07  1684.64
                             1700.30  1717.06  1738.33  1760.02  1773.17
                             1799.67  1820.00  1864.13  1878.18  1878.54
                             1895.91  1901.42  1918.34  1924.54  1935.28
                             1944.31  1959.59  1971.01  1985.40  1993.73
                             2002.68  2012.51  2018.31  2030.20  2036.83
                             2045.92  2098.00  2113.43  2117.53  2122.98
                             2126.93  2129.33  2135.31  2142.38  2147.73
                             2150.97  2154.62  2156.64  2164.53  2165.66
                             2168.33  2173.09  2176.07  3218.23  4292.01
                             4300.89  4306.69  4309.53  4312.15  4322.12
                             4331.48  4346.72  4348.69  4348.99  4354.78
                             4355.94  4357.40  4361.03  4362.04  4362.59
                             4364.24  4385.46  4395.60  4419.74  4425.99
                             4438.71  4447.39  4454.83  4454.92  4455.48
                             4457.14  4468.74  4475.37  4477.08  4478.81
                             4496.29  5047.03

 Zero-point correction=                           0.461583 (Hartree/Particle)
 Thermal correction to Energy=                    0.486737
 Thermal correction to Enthalpy=                  0.487681
 Thermal correction to Gibbs Free Energy=         0.403027
 Sum of electronic and zero-point Energies=          -1008.589634
 Sum of electronic and thermal Energies=             -1008.564479
 Sum of electronic and thermal Enthalpies=           -1008.563535
 Sum of electronic and thermal Free Energies=        -1008.648189

                     E (Thermal)             CV                S
                      KCal/Mol        Cal/Mol-Kelvin    Cal/Mol-Kelvin
 Total                  305.432             90.900            178.170
 Electronic               0.000              0.000              0.000
 Translational            0.889              2.981             42.659
 Rotational               0.889              2.981             35.031
 Vibrational            303.655             84.938            100.479
 Vibration     1          0.593              1.987              7.476
 Vibration     2          0.593              1.986              7.048
 Vibration     3          0.593              1.985              6.195
 Vibration     4          0.593              1.984              5.950
 Vibration     5          0.596              1.977              4.752
 Vibration     6          0.596              1.974              4.495
 Vibration     7          0.597              1.971              4.276
 Vibration     8          0.599              1.965              3.973
 Vibration     9          0.600              1.961              3.825
 Vibration    10          0.603              1.952              3.528
 Vibration    11          0.605              1.945              3.361
 Vibration    12          0.609              1.933              3.104
 Vibration    13          0.613              1.919              2.888
 Vibration    14          0.618              1.902              2.666
 Vibration    15          0.627              1.875              2.392
 Vibration    16          0.632              1.858              2.263
 Vibration    17          0.638              1.838              2.122
 Vibration    18          0.648              1.807              1.939
 Vibration    19          0.652              1.795              1.880
 Vibration    20          0.653              1.793              1.866
 Vibration    21          0.658              1.778              1.797
 Vibration    22          0.666              1.754              1.694
 Vibration    23          0.670              1.740              1.639
 Vibration    24          0.682              1.706              1.518
 Vibration    25          0.684              1.699              1.495
 Vibration    26          0.705              1.638              1.318
 Vibration    27          0.727              1.576              1.168
 Vibration    28          0.736              1.551              1.115
 Vibration    29          0.751              1.511              1.035
 Vibration    30          0.760              1.487              0.991
 Vibration    31          0.775              1.447              0.924
 Vibration    32          0.791              1.406              0.860
 Vibration    33          0.801              1.381              0.824
 Vibration    34          0.837              1.292              0.707
 Vibration    35          0.860              1.239              0.646
 Vibration    36          0.877              1.202              0.606
 Vibration    37          0.974              1.000              0.425

 Optimization completed on the basis of negligible forces.
    -- Stationary point found.
 Normal termination of Gaussian 16 at Tue May 23 07:20:03 2023.
