 Gaussian 16, Revision A.03,
 Gaussian 16:  ES64L-G16RevA.03 25-Dec-2016

 -----------------------------
 # opt freq b3lyp/6-31g(2df,p)
 -----------------------------

 -------------------
 Title Card Required
 -------------------
 Symbolic Z-matrix:
 Charge =  0 Multiplicity = 1

 SCF Done:  E(RB3LYP) =  -617.511858909     A.U. after   14 cycles
 SCF Done:  E(RB3LYP) =  -617.538040589     A.U. after   12 cycles
 SCF Done:  E(RB3LYP) =  -617.537947979     A.U. after   13 cycles
 SCF Done:  E(RB3LYP) =  -617.538571605     A.U. after   12 cycles
 SCF Done:  E(RB3LYP) =  -617.540694423     A.U. after   11 cycles
 SCF Done:  E(RB3LYP) =  -617.539438335     A.U. after   13 cycles
 SCF Done:  E(RB3LYP) =  -617.541124719     A.U. after   11 cycles
 SCF Done:  E(RB3LYP) =  -617.541325084     A.U. after   11 cycles
 SCF Done:  E(RB3LYP) =  -617.541779815     A.U. after   10 cycles
 SCF Done:  E(RB3LYP) =  -617.541878984     A.U. after   10 cycles
 SCF Done:  E(RB3LYP) =  -617.546745788     A.U. after   11 cycles
 SCF Done:  E(RB3LYP) =  -617.546774085     A.U. after   11 cycles
 SCF Done:  E(RB3LYP) =  -617.547192434     A.U. after   11 cycles
 SCF Done:  E(RB3LYP) =  -617.547302374     A.U. after   11 cycles
 SCF Done:  E(RB3LYP) =  -617.547330158     A.U. after    9 cycles
 SCF Done:  E(RB3LYP) =  -617.547353414     A.U. after    9 cycles
 SCF Done:  E(RB3LYP) =  -617.547363355     A.U. after    9 cycles
 SCF Done:  E(RB3LYP) =  -617.547371111     A.U. after    9 cycles
 SCF Done:  E(RB3LYP) =  -617.547373704     A.U. after    9 cycles
 Optimization completed.
    -- Stationary point found.
 Normal termination of Gaussian 16 at Sun May 28 13:24:00 2023.

 ----------------------------------------------------------------------
 #N Geom=AllCheck Guess=TCheck SCRF=Check GenChk RB3LYP/6-31G(2df,p) Fr
 eq
 ----------------------------------------------------------------------

 Structure from the checkpoint file:  "CtCCCCCOCqCrqOrCqCrO.chk"
 -------------------
 Title Card Required
 -------------------
 Charge =  0 Multiplicity = 1

                         Standard orientation:
 ---------------------------------------------------------------------
 Center     Atomic      Atomic             Coordinates (Angstroms)
 Number     Number       Type             X           Y           Z
 ---------------------------------------------------------------------
      1          6           0       -6.441508   -0.381372    0.117153
      2          6           0       -5.378697    0.140583   -0.090235
      3          6           0       -4.074206    0.746053   -0.328818
      4          6           0       -2.900709   -0.161024    0.093123
      5          6           0       -1.540433    0.493617   -0.160075
      6          6           0       -0.378340   -0.400979    0.251498
      7          8           0        0.825571    0.315031    0.003342
      8          6           0        2.025465   -0.417957    0.052233
      9          6           0        2.305168   -0.977717    1.454236
     10          8           0        1.961628   -1.491028   -0.867273
     11          6           0        3.099814    0.583745   -0.450557
     12          6           0        3.398476    1.733425    0.500895
     13          8           0        4.278753   -0.132690   -0.829526
     14          1           0       -7.385751   -0.832684    0.294969
     15          1           0       -4.010014    1.699754    0.211643
     16          1           0       -3.976606    0.995896   -1.393528
     17          1           0       -2.971394   -1.108708   -0.453504
     18          1           0       -3.009743   -0.408771    1.155665
     19          1           0       -1.468853    1.440134    0.390631
     20          1           0       -1.430044    0.741052   -1.222833
     21          1           0       -0.385608   -1.333241   -0.325326
     22          1           0       -0.462568   -0.660847    1.317952
     23          1           0        1.613693   -1.794304    1.671914
     24          1           0        2.204997   -0.209543    2.225339
     25          1           0        3.316762   -1.395008    1.499265
     26          1           0        2.843190   -1.548637   -1.261055
     27          1           0        2.698211    0.977766   -1.389333
     28          1           0        3.869226    1.377952    1.425165
     29          1           0        2.472133    2.247250    0.768362
     30          1           0        4.076722    2.448588    0.027886
     31          1           0        4.787856   -0.317410   -0.032286
 ---------------------------------------------------------------------

 SCF Done:  E(RB3LYP) =  -617.547373704     A.U. after    1 cycles

 The electronic state is 1-A.
 Alpha  occ. eigenvalues --  -19.15470 -19.13741 -19.12642 -10.27672 -10.23533
 Alpha  occ. eigenvalues --  -10.22177 -10.20555 -10.18796 -10.18218 -10.18033
 Alpha  occ. eigenvalues --  -10.17676 -10.17605 -10.16482  -1.06169  -1.02976
 Alpha  occ. eigenvalues --   -0.98854  -0.81253  -0.78030  -0.75242  -0.72518
 Alpha  occ. eigenvalues --   -0.70603  -0.66269  -0.63094  -0.58781  -0.57676
 Alpha  occ. eigenvalues --   -0.52758  -0.51935  -0.49796  -0.48675  -0.47374
 Alpha  occ. eigenvalues --   -0.46350  -0.45320  -0.44835  -0.42716  -0.41651
 Alpha  occ. eigenvalues --   -0.40682  -0.39597  -0.38948  -0.37509  -0.37392
 Alpha  occ. eigenvalues --   -0.36999  -0.35085  -0.34031  -0.33391  -0.32641
 Alpha  occ. eigenvalues --   -0.32105  -0.29505  -0.26358  -0.25873  -0.25856
 Alpha  occ. eigenvalues --   -0.25672
 Alpha virt. eigenvalues --    0.05612   0.05726   0.06332   0.09713   0.10943
 Alpha virt. eigenvalues --    0.11937   0.12232   0.12530   0.13119   0.13383
 Alpha virt. eigenvalues --    0.13803   0.14794   0.15034   0.16206   0.16820

 Mulliken charges:
               1
     1  C   -0.436616
     2  C    0.292394
     3  C   -0.356025
     4  C   -0.178703
     5  C   -0.193453
     6  C   -0.083986
     7  O   -0.278751
     8  C    0.431666
     9  C   -0.439667
    10  O   -0.464487
    11  C    0.074695
    12  C   -0.422538
    13  O   -0.443574
    14  H    0.192208
    15  H    0.128970
    16  H    0.130650
    17  H    0.112907
    18  H    0.109234
    19  H    0.100750
    20  H    0.107123
    21  H    0.119995
    22  H    0.086644
    23  H    0.132692
    24  H    0.120544
    25  H    0.098850
    26  H    0.288430
    27  H    0.106914
    28  H    0.109173
    29  H    0.143103
    30  H    0.124859
    31  H    0.286000
 Sum of Mulliken charges =  -0.00000

 Dipole moment (field-independent basis, Debye):
    X=              1.6711    Y=              0.4841    Z=              1.6286  Tot=              2.3831
 Quadrupole moment (field-independent basis, Debye-Ang):
   XX=            -74.8110   YY=            -79.7805   ZZ=            -80.0501
   XY=              1.0465   XZ=              4.9947   YZ=             -1.3083

  Exact polarizability: 158.817   8.969 102.439  -2.823  -1.833  95.727
 Approx polarizability: 192.084  15.908 153.916  -7.911  -1.799 146.216

                      1                      2                      3
                      A                      A                      A
 Frequencies --     28.0378                33.0396                51.1354
 Red. masses --      4.7269                 2.1548                 4.5831
 Frc consts  --      0.0022                 0.0014                 0.0071
 IR Inten    --      0.4392                 0.2881                 0.1652

                      4                      5                      6
                      A                      A                      A
 Frequencies --     74.7113                95.2476               112.1088
 Red. masses --      3.3652                 3.2173                 2.2454
 Frc consts  --      0.0111                 0.0172                 0.0166
 IR Inten    --      1.9200                 1.1094                 0.3796

                      7                      8                      9
                      A                      A                      A
 Frequencies --    121.2728               155.0738               204.0779
 Red. masses --      3.4036                 2.5939                 3.4829
 Frc consts  --      0.0295                 0.0368                 0.0855
 IR Inten    --      0.3215                 2.0525                 2.8191

                     10                     11                     12
                      A                      A                      A
 Frequencies --    218.6183               238.6375               254.0420
 Red. masses --      3.6156                 1.2190                 1.4854
 Frc consts  --      0.1018                 0.0409                 0.0565
 IR Inten    --      2.2462                 2.0997                 1.7242

                     13                     14                     15
                      A                      A                      A
 Frequencies --    276.4201               289.4287               328.7773
 Red. masses --      1.4293                 1.1743                 4.0119
 Frc consts  --      0.0643                 0.0580                 0.2555
 IR Inten    --      0.3685                43.9328                 4.0822

                     16                     17                     18
                      A                      A                      A
 Frequencies --    350.0570               360.6059               369.3409
 Red. masses --      3.2177                 3.0492                 3.7962
 Frc consts  --      0.2323                 0.2336                 0.3051
 IR Inten    --      2.6078                 1.9265                 5.4398

                     19                     20                     21
                      A                      A                      A
 Frequencies --    427.1941               456.7592               475.6946
 Red. masses --      3.4676                 2.3173                 1.5354
 Frc consts  --      0.3728                 0.2848                 0.2047
 IR Inten    --      3.9624                58.0711                56.7559

                     22                     23                     24
                      A                      A                      A
 Frequencies --    490.4932               532.3194               553.1933
 Red. masses --      3.0467                 3.9625                 3.9331
 Frc consts  --      0.4319                 0.6616                 0.7091
 IR Inten    --     19.6115                 9.6354                 1.7643

                     25                     26                     27
                      A                      A                      A
 Frequencies --    614.8318               634.5613               641.2803
 Red. masses --      1.1983                 1.2230                 2.8173
 Frc consts  --      0.2669                 0.2901                 0.6826
 IR Inten    --     44.0678                40.5689                 7.6628

                     28                     29                     30
                      A                      A                      A
 Frequencies --    741.8787               755.2808               800.8163
 Red. masses --      1.0892                 3.7038                 1.1874
 Frc consts  --      0.3532                 1.2448                 0.4487
 IR Inten    --      1.3165                 9.9865                 0.3632

                     31                     32                     33
                      A                      A                      A
 Frequencies --    883.8590               918.0705               927.3406
 Red. masses --      2.3223                 2.0071                 1.2586
 Frc consts  --      1.0689                 0.9967                 0.6377
 IR Inten    --     12.3923                 1.9582                 0.2631

                     34                     35                     36
                      A                      A                      A
 Frequencies --    947.9428               957.1427              1005.1697
 Red. masses --      4.4286                 1.9832                 2.0920
 Frc consts  --      2.3447                 1.0705                 1.2454
 IR Inten    --      3.3568                37.4493                20.0372

                     37                     38                     39
                      A                      A                      A
 Frequencies --   1025.7663              1057.4055              1071.1542
 Red. masses --      2.8138                 2.4558                 1.7935
 Frc consts  --      1.7444                 1.6178                 1.2124
 IR Inten    --      4.8457                 0.5005                28.3646

                     40                     41                     42
                      A                      A                      A
 Frequencies --   1082.7731              1095.6421              1112.7933
 Red. masses --      2.3037                 3.3959                 4.0439
 Frc consts  --      1.5913                 2.4018                 2.9504
 IR Inten    --     82.6241                 1.6467               172.2572

                     43                     44                     45
                      A                      A                      A
 Frequencies --   1128.3895              1139.0164              1179.6227
 Red. masses --      1.4932                 2.4761                 3.2014
 Frc consts  --      1.1202                 1.8927                 2.6247
 IR Inten    --      1.8904               155.2884                53.8607

                     46                     47                     48
                      A                      A                      A
 Frequencies --   1208.6700              1229.3477              1257.6680
 Red. masses --      1.3823                 2.8304                 1.3349
 Frc consts  --      1.1898                 2.5203                 1.2440
 IR Inten    --      9.0632                83.3445                14.2341

                     49                     50                     51
                      A                      A                      A
 Frequencies --   1281.6205              1290.9545              1317.1303
 Red. masses --      1.2288                 1.4824                 1.0660
 Frc consts  --      1.1892                 1.4556                 1.0896
 IR Inten    --      0.0926                24.6708                 0.8845

                     52                     53                     54
                      A                      A                      A
 Frequencies --   1324.1704              1338.4631              1350.1426
 Red. masses --      1.1077                 1.3775                 1.2997
 Frc consts  --      1.1443                 1.4539                 1.3958
 IR Inten    --      1.1005                 1.9871                26.4895

                     55                     56                     57
                      A                      A                      A
 Frequencies --   1381.5995              1391.9157              1398.4797
 Red. masses --      1.5173                 1.5801                 1.2365
 Frc consts  --      1.7064                 1.8037                 1.4248
 IR Inten    --    113.5715                14.3024                17.8182

                     58                     59                     60
                      A                      A                      A
 Frequencies --   1401.1340              1416.7764              1436.0865
 Red. masses --      1.3031                 1.2781                 1.4458
 Frc consts  --      1.5072                 1.5115                 1.7568
 IR Inten    --     24.9403                33.4770                15.2868

                     61                     62                     63
                      A                      A                      A
 Frequencies --   1473.4599              1482.7537              1489.8855
 Red. masses --      1.0825                 1.0732                 1.0757
 Frc consts  --      1.3847                 1.3902                 1.4068
 IR Inten    --      0.9236                 1.7914                 0.3031

                     64                     65                     66
                      A                      A                      A
 Frequencies --   1490.9024              1497.4058              1503.5931
 Red. masses --      1.0561                 1.0507                 1.0754
 Frc consts  --      1.3831                 1.3880                 1.4324
 IR Inten    --      0.9851                 9.4461                 7.8618

                     67                     68                     69
                      A                      A                      A
 Frequencies --   1504.9245              1527.5742              2238.7186
 Red. masses --      1.0942                 1.0904                 5.9369
 Frc consts  --      1.4600                 1.4991                17.5309
 IR Inten    --      1.2426                 1.9090                 4.5584

                     70                     71                     72
                      A                      A                      A
 Frequencies --   2983.5803              3014.3695              3023.9676
 Red. masses --      1.0653                 1.0581                 1.0590
 Frc consts  --      5.5874                 5.6645                 5.7058
 IR Inten    --     35.9259                 8.5584                 5.8682

                     73                     74                     75
                      A                      A                      A
 Frequencies --   3033.9330              3036.2116              3041.3495
 Red. masses --      1.0404                 1.0617                 1.0990
 Frc consts  --      5.6422                 5.7667                 5.9893
 IR Inten    --      8.7854                41.3645                 4.5485

                     76                     77                     78
                      A                      A                      A
 Frequencies --   3042.3595              3050.6632              3064.8273
 Red. masses --      1.0380                 1.0923                 1.1024
 Frc consts  --      5.6605                 5.9894                 6.1009
 IR Inten    --     20.8952                11.1957                 2.5084

                     79                     80                     81
                      A                      A                      A
 Frequencies --   3069.4261              3086.6549              3106.4396
 Red. masses --      1.0842                 1.1055                 1.0967
 Frc consts  --      6.0183                 6.2056                 6.2355
 IR Inten    --     11.5171                68.8881                31.6663

                     82                     83                     84
                      A                      A                      A
 Frequencies --   3109.9653              3133.6348              3135.2858
 Red. masses --      1.0978                 1.1014                 1.1018
 Frc consts  --      6.2558                 6.3723                 6.3815
 IR Inten    --     27.7178                16.4368                13.2768

                     85                     86                     87
                      A                      A                      A
 Frequencies --   3508.2128              3746.4878              3800.7795
 Red. masses --      1.1619                 1.0651                 1.0658
 Frc consts  --      8.4255                 8.8079                 9.0717
 IR Inten    --     69.4223                91.7854                16.1578

 - Thermochemistry -
 -------------------
 Temperature   298.150 Kelvin.  Pressure   1.00000 Atm.
 Atom     1 has atomic number  6 and mass  12.00000

 Molecular mass:   186.12559 amu.
 Principal axes and moments of inertia in atomic units:
                           1         2         3
     Eigenvalues --   776.412987828.841258036.24554
           X            0.99997   0.00396   0.00651
           Y           -0.00361   0.99858  -0.05308
           Z           -0.00671   0.05305   0.99857
 This molecule is an asymmetric top.
 Rotational symmetry number  1.
 Warning -- assumption of classical behavior for rotation
           may cause significant error
 Rotational temperatures (Kelvin)      0.11156     0.01106     0.01078
 Rotational constants (GHZ):           2.32446     0.23052     0.22458
 Zero-point vibrational energy     702438.5 (Joules/Mol)
                                  167.88683 (Kcal/Mol)
 Warning -- explicit consideration of  25 degrees of freedom as
           vibrations may cause significant error
 Vibrational temperatures:     40.34    47.54    73.57   107.49   137.04
          (Kelvin)            161.30   174.48   223.12   293.62   314.54
                              343.35   365.51   397.71   416.42   473.04
                              503.65   518.83   531.40   614.64   657.17
                              684.42   705.71   765.89   795.92   884.61
                              912.99   922.66  1067.40  1086.68  1152.20
                             1271.68  1320.90  1334.24  1363.88  1377.11
                             1446.22  1475.85  1521.37  1541.15  1557.87
                             1576.38  1601.06  1623.50  1638.79  1697.21
                             1739.01  1768.76  1809.50  1843.97  1857.40
                             1895.06  1905.19  1925.75  1942.55  1987.81
                             2002.66  2012.10  2015.92  2038.43  2066.21
                             2119.98  2133.35  2143.61  2145.08  2154.43
                             2163.34  2165.25  2197.84  3221.02  4292.71
                             4337.01  4350.81  4365.15  4368.43  4375.82
                             4377.28  4389.22  4409.60  4416.22  4441.01
                             4469.47  4474.55  4508.60  4510.98  5047.54
                             5390.36  5468.47

 Zero-point correction=                           0.267545 (Hartree/Particle)
 Thermal correction to Energy=                    0.283728
 Thermal correction to Enthalpy=                  0.284672
 Thermal correction to Gibbs Free Energy=         0.223005
 Sum of electronic and zero-point Energies=           -617.279829
 Sum of electronic and thermal Energies=              -617.263646
 Sum of electronic and thermal Enthalpies=            -617.262702
 Sum of electronic and thermal Free Energies=         -617.324369

                     E (Thermal)             CV                S
                      KCal/Mol        Cal/Mol-Kelvin    Cal/Mol-Kelvin
 Total                  178.042             59.028            129.789
 Electronic               0.000              0.000              0.000
 Translational            0.889              2.981             41.570
 Rotational               0.889              2.981             32.257
 Vibrational            176.264             53.066             55.962
 Vibration     1          0.593              1.984              5.964
 Vibration     2          0.594              1.983              5.638
 Vibration     3          0.595              1.977              4.773
 Vibration     4          0.599              1.966              4.025
 Vibration     5          0.603              1.953              3.549
 Vibration     6          0.607              1.939              3.232
 Vibration     7          0.609              1.931              3.080
 Vibration     8          0.620              1.897              2.609
 Vibration     9          0.640              1.834              2.096
 Vibration    10          0.646              1.813              1.971
 Vibration    11          0.657              1.781              1.813
 Vibration    12          0.665              1.756              1.702
 Vibration    13          0.678              1.717              1.556
 Vibration    14          0.686              1.693              1.477
 Vibration    15          0.712              1.618              1.266
 Vibration    16          0.727              1.575              1.166
 Vibration    17          0.735              1.553              1.119
 Vibration    18          0.742              1.535              1.083
 Vibration    19          0.789              1.411              0.868
 Vibration    20          0.815              1.346              0.776
 Vibration    21          0.832              1.304              0.722
 Vibration    22          0.846              1.271              0.682
 Vibration    23          0.887              1.179              0.582
 Vibration    24          0.909              1.133              0.538
 Vibration    25          0.974              1.000              0.425

                           ! Non-Optimized Parameters !
 Normal termination of Gaussian 16 at Sun May 28 14:42:37 2023.
