 Gaussian 16, Revision A.03,
 Gaussian 16:  ES64L-G16RevA.03 25-Dec-2016

 -----------------------------
 # opt freq b3lyp/6-31g(2df,p)
 -----------------------------

 -------------------
 Title Card Required
 -------------------
 Symbolic Z-matrix:
 Charge =  0 Multiplicity = 1

 SCF Done:  E(RB3LYP) =  -636.961927511     A.U. after   13 cycles
 SCF Done:  E(RB3LYP) =  -636.984554606     A.U. after   12 cycles
 SCF Done:  E(RB3LYP) =  -636.986006313     A.U. after   12 cycles
 SCF Done:  E(RB3LYP) =  -636.977060178     A.U. after   13 cycles
 SCF Done:  E(RB3LYP) =  -636.986124433     A.U. after   11 cycles
 SCF Done:  E(RB3LYP) =  -636.984241652     A.U. after   12 cycles
 SCF Done:  E(RB3LYP) =  -636.986209653     A.U. after   10 cycles
 SCF Done:  E(RB3LYP) =  -636.986416573     A.U. after   10 cycles
 SCF Done:  E(RB3LYP) =  -636.986449422     A.U. after   10 cycles
 SCF Done:  E(RB3LYP) =  -636.986490841     A.U. after    9 cycles
 SCF Done:  E(RB3LYP) =  -636.986493585     A.U. after    9 cycles
 SCF Done:  E(RB3LYP) =  -636.986494637     A.U. after    8 cycles
 SCF Done:  E(RB3LYP) =  -636.986494819     A.U. after    7 cycles
 SCF Done:  E(RB3LYP) =  -636.986494843     A.U. after    6 cycles
 SCF Done:  E(RB3LYP) =  -636.986494846     A.U. after    6 cycles
 SCF Done:  E(RB3LYP) =  -636.986494846     A.U. after    6 cycles
 Optimization completed.
    -- Stationary point found.
 Normal termination of Gaussian 16 at Tue May 23 08:49:28 2023.

 ----------------------------------------------------------------------
 #N Geom=AllCheck Guess=TCheck SCRF=Check GenChk RB3LYP/6-31G(2df,p) Fr
 eq
 ----------------------------------------------------------------------

 Structure from the checkpoint file:  "CtCCqCCrCNCCCqOrOCC.chk"
 -------------------
 Title Card Required
 -------------------
 Charge =  0 Multiplicity = 1

                         Standard orientation:
 ---------------------------------------------------------------------
 Center     Atomic      Atomic             Coordinates (Angstroms)
 Number     Number       Type             X           Y           Z
 ---------------------------------------------------------------------
      1          6           0       -5.477097   -1.687059    0.083739
      2          6           0       -4.557756   -0.934456   -0.103296
      3          6           0       -3.421813   -0.034182   -0.296128
      4          6           0       -3.699814    1.363020    0.306654
      5          6           0       -4.924502    2.058654   -0.291643
      6          6           0       -2.144294   -0.688072    0.280683
      7          7           0       -0.948417    0.082390   -0.036361
      8          6           0        0.292434   -0.616168    0.286529
      9          6           0        1.504176    0.254661   -0.040245
     10          6           0        2.832016   -0.455576    0.205899
     11          8           0        2.959471   -1.646464   -0.544429
     12          8           0        3.848824    0.464333   -0.088164
     13          6           0        5.152081    0.041355    0.297078
     14          6           0        6.142087    1.120248   -0.105738
     15          1           0       -6.292062   -2.351142    0.232757
     16          1           0       -3.254075    0.093289   -1.374539
     17          1           0       -2.816654    1.989418    0.137690
     18          1           0       -3.821088    1.259746    1.392287
     19          1           0       -4.807400    2.202185   -1.371531
     20          1           0       -5.073831    3.043618    0.160996
     21          1           0       -5.830269    1.467836   -0.129332
     22          1           0       -2.032636   -1.678950   -0.172650
     23          1           0       -2.286190   -0.855959    1.364299
     24          1           0       -0.966722    0.961475    0.470925
     25          1           0        0.336145   -1.534395   -0.309724
     26          1           0        0.342239   -0.934950    1.345869
     27          1           0        1.493150    1.170662    0.562651
     28          1           0        1.461220    0.569318   -1.090457
     29          1           0        2.911843   -0.791598    1.252053
     30          1           0        2.873479   -1.402971   -1.474777
     31          1           0        5.393346   -0.914840   -0.184383
     32          1           0        5.178959   -0.124197    1.386558
     33          1           0        6.122738    1.275539   -1.188362
     34          1           0        7.156891    0.831855    0.184396
     35          1           0        5.898366    2.069828    0.379360
 ---------------------------------------------------------------------

 SCF Done:  E(RB3LYP) =  -636.986494846     A.U. after    1 cycles

 The electronic state is 1-A.
 Alpha  occ. eigenvalues --  -19.14173 -19.13950 -14.31350 -10.27453 -10.22514
 Alpha  occ. eigenvalues --  -10.20660 -10.20589 -10.20420 -10.18635 -10.18098
 Alpha  occ. eigenvalues --  -10.17578 -10.17552 -10.17140 -10.16681  -1.06169
 Alpha  occ. eigenvalues --   -0.99650  -0.90586  -0.81444  -0.77623  -0.74481
 Alpha  occ. eigenvalues --   -0.73748  -0.70391  -0.65444  -0.62490  -0.61052
 Alpha  occ. eigenvalues --   -0.59968  -0.59000  -0.52185  -0.51853  -0.49725
 Alpha  occ. eigenvalues --   -0.48906  -0.47437  -0.46557  -0.45237  -0.43848
 Alpha  occ. eigenvalues --   -0.43375  -0.42158  -0.40695  -0.39981  -0.39578
 Alpha  occ. eigenvalues --   -0.38158  -0.37866  -0.36194  -0.35598  -0.35453
 Alpha  occ. eigenvalues --   -0.34327  -0.34071  -0.33553  -0.33203  -0.30683
 Alpha  occ. eigenvalues --   -0.28786  -0.26528  -0.26112  -0.25951  -0.22432
 Alpha virt. eigenvalues --    0.05646   0.05898   0.07899   0.08908   0.10428
 Alpha virt. eigenvalues --    0.11092   0.11352   0.11814   0.13131   0.13231
 Alpha virt. eigenvalues --    0.13541   0.14800   0.15502   0.16058   0.16511

 Mulliken charges:
               1
     1  C   -0.475144
     2  C    0.335412
     3  C   -0.164945
     4  C   -0.179844
     5  C   -0.387676
     6  C   -0.144616
     7  N   -0.310338
     8  C   -0.122983
     9  C   -0.248491
    10  C    0.201985
    11  O   -0.412464
    12  O   -0.248858
    13  C   -0.043152
    14  C   -0.384754
    15  H    0.192713
    16  H    0.109165
    17  H    0.098086
    18  H    0.101467
    19  H    0.115257
    20  H    0.110813
    21  H    0.133081
    22  H    0.112722
    23  H    0.087181
    24  H    0.214719
    25  H    0.113508
    26  H    0.077027
    27  H    0.102537
    28  H    0.107169
    29  H    0.075139
    30  H    0.279214
    31  H    0.105092
    32  H    0.086833
    33  H    0.124166
    34  H    0.115450
    35  H    0.124533
 Sum of Mulliken charges =  -0.00000

 Dipole moment (field-independent basis, Debye):
    X=              0.7116    Y=              0.7471    Z=              0.4719  Tot=              1.1345
 Quadrupole moment (field-independent basis, Debye-Ang):
   XX=            -83.7297   YY=            -88.8256   ZZ=            -84.3280
   XY=              1.2204   XZ=             -1.4240   YZ=              1.6730

  Exact polarizability: 177.379  12.187 126.398  -0.493  -1.716 105.686
 Approx polarizability: 201.227  21.798 186.423  -4.174  -3.969 166.260

                      1                      2                      3
                      A                      A                      A
 Frequencies --     23.3642                27.4594                41.5966
 Red. masses --      3.5622                 3.7311                 3.8397
 Frc consts  --      0.0011                 0.0017                 0.0039
 IR Inten    --      0.0379                 0.0265                 0.0075

                      4                      5                      6
                      A                      A                      A
 Frequencies --     58.8756                77.6716               103.6125
 Red. masses --      2.6089                 2.3410                 2.2726
 Frc consts  --      0.0053                 0.0083                 0.0144
 IR Inten    --      0.1124                 0.4909                 0.2326

                      7                      8                      9
                      A                      A                      A
 Frequencies --    111.2218               115.1628               127.9754
 Red. masses --      3.2345                 2.3548                 3.0155
 Frc consts  --      0.0236                 0.0184                 0.0291
 IR Inten    --      0.2935                 2.6893                 1.8053

                     10                     11                     12
                      A                      A                      A
 Frequencies --    151.3331               168.2863               199.0645
 Red. masses --      2.6056                 2.4414                 3.4982
 Frc consts  --      0.0352                 0.0407                 0.0817
 IR Inten    --      1.7469                 2.7921                 0.6720

                     13                     14                     15
                      A                      A                      A
 Frequencies --    216.5991               241.0412               251.8023
 Red. masses --      2.3619                 1.7427                 1.2329
 Frc consts  --      0.0653                 0.0597                 0.0461
 IR Inten    --      0.0323                 1.1768                 0.9716

                     16                     17                     18
                      A                      A                      A
 Frequencies --    273.6064               300.4581               342.2790
 Red. masses --      1.9869                 4.4570                 1.5110
 Frc consts  --      0.0876                 0.2371                 0.1043
 IR Inten    --      1.3281                 1.4704                50.1644

                     19                     20                     21
                      A                      A                      A
 Frequencies --    360.8031               395.3558               444.4485
 Red. masses --      3.6930                 1.9001                 3.2416
 Frc consts  --      0.2833                 0.1750                 0.3773
 IR Inten    --      2.8007                79.0600                 5.8701

                     22                     23                     24
                      A                      A                      A
 Frequencies --    479.4296               522.7453               551.1624
 Red. masses --      4.4192                 3.1631                 2.8359
 Frc consts  --      0.5985                 0.5093                 0.5076
 IR Inten    --     14.3334                 5.6108                 6.5601

                     25                     26                     27
                      A                      A                      A
 Frequencies --    586.9381               625.4255               628.0415
 Red. masses --      3.2248                 1.2149                 4.2174
 Frc consts  --      0.6545                 0.2800                 0.9801
 IR Inten    --      6.5637                42.8442                20.4028

                     28                     29                     30
                      A                      A                      A
 Frequencies --    638.8259               765.2092               787.5886
 Red. masses --      1.2374                 1.6138                 1.1992
 Frc consts  --      0.2975                 0.5568                 0.4383
 IR Inten    --     43.7942                 4.2350                41.1876

                     31                     32                     33
                      A                      A                      A
 Frequencies --    799.7753               818.7202               830.8712
 Red. masses --      1.2813                 1.0892                 1.6564
 Frc consts  --      0.4829                 0.4301                 0.6737
 IR Inten    --      5.2472                 0.4143                 7.5004

                     34                     35                     36
                      A                      A                      A
 Frequencies --    892.6958               921.5702               953.5950
 Red. masses --      2.1624                 2.4843                 1.8019
 Frc consts  --      1.0153                 1.2431                 0.9654
 IR Inten    --      6.5874                35.8031                 3.8150

                     37                     38                     39
                      A                      A                      A
 Frequencies --    966.3783              1023.1079              1031.4750
 Red. masses --      1.5205                 3.9553                 3.1850
 Frc consts  --      0.8366                 2.4393                 1.9965
 IR Inten    --      9.7673                 1.9072                42.8044

                     40                     41                     42
                      A                      A                      A
 Frequencies --   1048.1184              1064.7155              1083.0750
 Red. masses --      2.7392                 2.4899                 1.9271
 Frc consts  --      1.7730                 1.6631                 1.3319
 IR Inten    --     15.6641                19.7413                40.8281

                     43                     44                     45
                      A                      A                      A
 Frequencies --   1096.0985              1106.1385              1120.8440
 Red. masses --      2.3099                 2.6657                 3.0021
 Frc consts  --      1.6351                 1.9216                 2.2221
 IR Inten    --     30.3159                39.7468               193.6841

                     46                     47                     48
                      A                      A                      A
 Frequencies --   1122.5914              1146.3981              1158.3582
 Red. masses --      1.8124                 1.9851                 2.9127
 Frc consts  --      1.3457                 1.5371                 2.3026
 IR Inten    --      2.6148               159.0704                15.3113

                     49                     50                     51
                      A                      A                      A
 Frequencies --   1167.1805              1188.2961              1204.2110
 Red. masses --      2.6971                 1.5487                 1.6471
 Frc consts  --      2.1648                 1.2884                 1.4072
 IR Inten    --     55.9542                 4.5607                13.5321

                     52                     53                     54
                      A                      A                      A
 Frequencies --   1256.0118              1272.3469              1288.2814
 Red. masses --      1.3830                 1.2741                 1.3136
 Frc consts  --      1.2854                 1.2152                 1.2845
 IR Inten    --      5.4548                 1.4925                 1.8969

                     55                     56                     57
                      A                      A                      A
 Frequencies --   1292.5856              1302.3369              1330.0704
 Red. masses --      1.1130                 1.2020                 1.2238
 Frc consts  --      1.0957                 1.2011                 1.2756
 IR Inten    --      1.9252                15.1610                 3.7525

                     58                     59                     60
                      A                      A                      A
 Frequencies --   1337.8031              1349.0994              1365.1049
 Red. masses --      1.2817                 1.2314                 1.3314
 Frc consts  --      1.3515                 1.3205                 1.4618
 IR Inten    --      1.4763                13.6675                12.3445

                     61                     62                     63
                      A                      A                      A
 Frequencies --   1368.2431              1383.1688              1404.1780
 Red. masses --      1.3515                 1.4025                 1.2676
 Frc consts  --      1.4908                 1.5809                 1.4726
 IR Inten    --     11.7751                49.3210                 9.8662

                     64                     65                     66
                      A                      A                      A
 Frequencies --   1412.2619              1424.0465              1434.2955
 Red. masses --      1.2367                 1.4751                 1.3450
 Frc consts  --      1.4533                 1.7625                 1.6302
 IR Inten    --      1.5533                 9.4266                52.6039

                     67                     68                     69
                      A                      A                      A
 Frequencies --   1441.9087              1483.8313              1483.8818
 Red. masses --      1.3563                 1.0908                 1.0432
 Frc consts  --      1.6615                 1.4150                 1.3534
 IR Inten    --      8.5294                 3.4324                 4.2975

                     70                     71                     72
                      A                      A                      A
 Frequencies --   1486.9321              1494.0941              1498.0304
 Red. masses --      1.0913                 1.1717                 1.0486
 Frc consts  --      1.4216                 1.5410                 1.3865
 IR Inten    --      3.3586                19.2007                 8.1956

                     73                     74                     75
                      A                      A                      A
 Frequencies --   1500.8543              1505.5555              1507.5882
 Red. masses --      1.0463                 1.0910                 1.0619
 Frc consts  --      1.3887                 1.4570                 1.4221
 IR Inten    --      2.4980                19.6981                 3.8808

                     76                     77                     78
                      A                      A                      A
 Frequencies --   1524.9435              1530.7974              2230.6699
 Red. masses --      1.0880                 1.0893                 5.9440
 Frc consts  --      1.4907                 1.5039                17.4261
 IR Inten    --      1.0343                 1.8082                 3.1170

                     79                     80                     81
                      A                      A                      A
 Frequencies --   2912.0105              2933.4897              2972.6561
 Red. masses --      1.0733                 1.0722                 1.0681
 Frc consts  --      5.3623                 5.4361                 5.5608
 IR Inten    --     57.3959                62.4672                29.6360

                     82                     83                     84
                      A                      A                      A
 Frequencies --   2986.3541              3013.1835              3026.6582
 Red. masses --      1.0826                 1.0787                 1.0614
 Frc consts  --      5.6884                 5.7705                 5.7285
 IR Inten    --     63.3518                 7.7836                29.9225

                     85                     86                     87
                      A                      A                      A
 Frequencies --   3030.2508              3035.7319              3039.3902
 Red. masses --      1.0595                 1.0367                 1.0930
 Frc consts  --      5.7318                 5.6291                 5.9492
 IR Inten    --     16.9276                31.2691                25.9388

                     88                     89                     90
                      A                      A                      A
 Frequencies --   3043.2414              3055.7805              3063.5685
 Red. masses --      1.0347                 1.0873                 1.0886
 Frc consts  --      5.6461                 5.9817                 6.0196
 IR Inten    --     19.9350                 3.7199                23.2621

                     91                     92                     93
                      A                      A                      A
 Frequencies --   3067.6447              3077.9107              3101.5994
 Red. masses --      1.1004                 1.1011                 1.1011
 Frc consts  --      6.1013                 6.1459                 6.2409
 IR Inten    --     21.7587                43.9144                36.9875

                     94                     95                     96
                      A                      A                      A
 Frequencies --   3117.5255              3118.0938              3119.3299
 Red. masses --      1.1015                 1.1015                 1.1026
 Frc consts  --      6.3073                 6.3099                 6.3213
 IR Inten    --     26.4323                27.1968                29.4266

                     97                     98                     99
                      A                      A                      A
 Frequencies --   3504.6714              3512.7360              3779.9157
 Red. masses --      1.1613                 1.0730                 1.0652
 Frc consts  --      8.4038                 7.8007                 8.9667
 IR Inten    --     69.8794                 0.3160                16.2694

 - Thermochemistry -
 -------------------
 Temperature   298.150 Kelvin.  Pressure   1.00000 Atm.
 Atom     1 has atomic number  6 and mass  12.00000

 Molecular mass:   199.15723 amu.
 Principal axes and moments of inertia in atomic units:
                           1         2         3
     Eigenvalues --   967.52865********************
           X            0.99999  -0.00378   0.00075
           Y            0.00379   0.99995  -0.00944
           Z           -0.00072   0.00945   0.99996
 This molecule is an asymmetric top.
 Rotational symmetry number  1.
 Warning -- assumption of classical behavior for rotation
           may cause significant error
 Rotational temperatures (Kelvin)      0.08952     0.00823     0.00769
 Rotational constants (GHZ):           1.86531     0.17157     0.16017
 Zero-point vibrational energy     812158.3 (Joules/Mol)
                                  194.11049 (Kcal/Mol)
 Warning -- explicit consideration of  25 degrees of freedom as
           vibrations may cause significant error
 Vibrational temperatures:     33.62    39.51    59.85    84.71   111.75
          (Kelvin)            149.08   160.02   165.69   184.13   217.73
                              242.13   286.41   311.64   346.80   362.29
                              393.66   432.29   492.46   519.12   568.83
                              639.46   689.79   752.11   793.00   844.47
                              899.85   903.61   919.13  1100.97  1133.16
                             1150.70  1177.96  1195.44  1284.39  1325.93
                             1372.01  1390.40  1472.02  1484.06  1508.01
                             1531.89  1558.30  1577.04  1591.49  1612.64
                             1615.16  1649.41  1666.62  1679.31  1709.69
                             1732.59  1807.12  1830.62  1853.55  1859.74
                             1873.77  1913.67  1924.80  1941.05  1964.08
                             1968.60  1990.07  2020.30  2031.93  2048.89
                             2063.63  2074.58  2134.90  2134.98  2139.36
                             2149.67  2155.33  2159.39  2166.16  2169.08
                             2194.05  2202.48  3209.44  4189.73  4220.64
                             4276.99  4296.70  4335.30  4354.69  4359.86
                             4367.74  4373.00  4378.55  4396.59  4407.79
                             4413.66  4428.43  4462.51  4485.42  4486.24
                             4488.02  5042.44  5054.04  5438.46

 Zero-point correction=                           0.309335 (Hartree/Particle)
 Thermal correction to Energy=                    0.327086
 Thermal correction to Enthalpy=                  0.328030
 Thermal correction to Gibbs Free Energy=         0.261576
 Sum of electronic and zero-point Energies=           -636.677160
 Sum of electronic and thermal Energies=              -636.659409
 Sum of electronic and thermal Enthalpies=            -636.658465
 Sum of electronic and thermal Free Energies=         -636.724919

                     E (Thermal)             CV                S
                      KCal/Mol        Cal/Mol-Kelvin    Cal/Mol-Kelvin
 Total                  205.249             63.241            139.864
 Electronic               0.000              0.000              0.000
 Translational            0.889              2.981             41.772
 Rotational               0.889              2.981             33.105
 Vibrational            203.472             57.280             64.987
 Vibration     1          0.593              1.985              6.326
 Vibration     2          0.593              1.984              6.005
 Vibration     3          0.594              1.981              5.182
 Vibration     4          0.596              1.974              4.495
 Vibration     5          0.599              1.964              3.949
 Vibration     6          0.605              1.946              3.385
 Vibration     7          0.607              1.940              3.247
 Vibration     8          0.608              1.937              3.180
 Vibration     9          0.611              1.925              2.976
 Vibration    10          0.619              1.901              2.655
 Vibration    11          0.625              1.881              2.455
 Vibration    12          0.637              1.841              2.142
 Vibration    13          0.645              1.816              1.987
 Vibration    14          0.658              1.778              1.795
 Vibration    15          0.664              1.760              1.718
 Vibration    16          0.676              1.722              1.573
 Vibration    17          0.693              1.673              1.414
 Vibration    18          0.721              1.591              1.202
 Vibration    19          0.735              1.553              1.119
 Vibration    20          0.762              1.480              0.980
 Vibration    21          0.804              1.373              0.813
 Vibration    22          0.836              1.296              0.712
 Vibration    23          0.878              1.200              0.604
 Vibration    24          0.906              1.137              0.542
 Vibration    25          0.944              1.060              0.473

 Optimization completed.
    -- Stationary point found.
 Normal termination of Gaussian 16 at Tue May 23 10:30:06 2023.
