 Gaussian 16, Revision A.03,
 Gaussian 16:  ES64L-G16RevA.03 25-Dec-2016

 -----------------------------
 # opt freq b3lyp/6-31g(2df,p)
 -----------------------------

 -------------------
 Title Card Required
 -------------------
 Symbolic Z-matrix:
 Charge =  0 Multiplicity = 1

 SCF Done:  E(RB3LYP) =  -625.301277318     A.U. after   14 cycles
 SCF Done:  E(RB3LYP) =  -625.315282339     A.U. after   12 cycles
 SCF Done:  E(RB3LYP) =  -625.316040378     A.U. after   11 cycles
 SCF Done:  E(RB3LYP) =  -625.312132807     A.U. after   12 cycles
 SCF Done:  E(RB3LYP) =  -625.316165551     A.U. after   10 cycles
 SCF Done:  E(RB3LYP) =  -625.316145121     A.U. after   10 cycles
 SCF Done:  E(RB3LYP) =  -625.316402653     A.U. after   11 cycles
 SCF Done:  E(RB3LYP) =  -625.316361174     A.U. after   10 cycles
 SCF Done:  E(RB3LYP) =  -625.316421832     A.U. after    9 cycles
 SCF Done:  E(RB3LYP) =  -625.316439363     A.U. after    9 cycles
 SCF Done:  E(RB3LYP) =  -625.316439909     A.U. after    7 cycles
 SCF Done:  E(RB3LYP) =  -625.316439964     A.U. after    6 cycles
 Optimization completed.
    -- Stationary point found.
 Normal termination of Gaussian 16 at Mon May 22 02:46:09 2023.

 ----------------------------------------------------------------------
 #N Geom=AllCheck Guess=TCheck SCRF=Check GenChk RB3LYP/6-31G(2df,p) Fr
 eq
 ----------------------------------------------------------------------

 Structure from the checkpoint file:  "CtCC1dCCqCCCCCCCrC1CCC.chk"
 -------------------
 Title Card Required
 -------------------
 Charge =  0 Multiplicity = 1

                         Standard orientation:
 ---------------------------------------------------------------------
 Center     Atomic      Atomic             Coordinates (Angstroms)
 Number     Number       Type             X           Y           Z
 ---------------------------------------------------------------------
      1          6           0       -5.757834   -1.475938    1.355404
      2          6           0       -4.723555   -1.345108    0.748920
      3          6           0       -3.504247   -1.139141    0.076372
      4          6           0       -2.841446   -1.760781   -0.915447
      5          6           0       -1.673122   -0.793562   -0.920947
      6          6           0       -0.297376   -1.383268   -0.599101
      7          6           0        0.825432   -0.343755   -0.505067
      8          6           0        2.196354   -0.957610   -0.199612
      9          6           0        3.322360    0.077794   -0.106025
     10          6           0        4.693454   -0.534628    0.198708
     11          6           0        5.819807    0.500326    0.292864
     12          6           0        7.186035   -0.120057    0.597415
     13          6           0       -2.447351   -0.040533    0.236136
     14          6           0       -2.922998    1.388337   -0.020095
     15          6           0       -1.815578    2.445284    0.062791
     16          6           0       -2.328734    3.867106   -0.182863
     17          1           0       -6.671718   -1.603831    1.880452
     18          1           0       -3.051711   -2.652406   -1.495907
     19          1           0       -1.610732   -0.186459   -1.834712
     20          1           0       -0.041699   -2.119688   -1.373849
     21          1           0       -0.362311   -1.946051    0.342043
     22          1           0        0.578545    0.394060    0.269717
     23          1           0        0.880977    0.215956   -1.449436
     24          1           0        2.444656   -1.695672   -0.975197
     25          1           0        2.140116   -1.519363    0.743275
     26          1           0        3.073559    0.815270    0.670008
     27          1           0        3.377480    0.640294   -1.048702
     28          1           0        4.943138   -1.272033   -0.577291
     29          1           0        4.639069   -1.097504    1.141293
     30          1           0        5.570220    1.236412    1.068707
     31          1           0        5.874059    1.062102   -0.649230
     32          1           0        7.172246   -0.659143    1.551367
     33          1           0        7.968570    0.642902    0.658140
     34          1           0        7.478209   -0.835161   -0.179829
     35          1           0       -1.915089   -0.096642    1.194402
     36          1           0       -3.708451    1.629709    0.709141
     37          1           0       -3.404431    1.432792   -1.006771
     38          1           0       -1.028525    2.210157   -0.664630
     39          1           0       -1.340422    2.393268    1.051567
     40          1           0       -2.779137    3.958601   -1.177541
     41          1           0       -1.520154    4.601687   -0.114899
     42          1           0       -3.093670    4.143954    0.551167
 ---------------------------------------------------------------------

 SCF Done:  E(RB3LYP) =  -625.316439964     A.U. after    2 cycles

 The electronic state is 1-A.
 Alpha  occ. eigenvalues --  -10.19926 -10.18993 -10.18894 -10.18645 -10.18272
 Alpha  occ. eigenvalues --  -10.17773 -10.17750 -10.17732 -10.17594 -10.17562
 Alpha  occ. eigenvalues --  -10.17546 -10.17484 -10.17396 -10.17334 -10.17075
 Alpha  occ. eigenvalues --  -10.16956  -0.86966  -0.80556  -0.78244  -0.77948
 Alpha  occ. eigenvalues --   -0.75415  -0.73238  -0.70214  -0.68549  -0.64189
 Alpha  occ. eigenvalues --   -0.61968  -0.60486  -0.57824  -0.57306  -0.57185
 Alpha  occ. eigenvalues --   -0.54838  -0.50875  -0.49522  -0.47806  -0.45911
 Alpha  occ. eigenvalues --   -0.45628  -0.43909  -0.42977  -0.41885  -0.41510
 Alpha  occ. eigenvalues --   -0.40695  -0.39760  -0.38432  -0.38390  -0.37372
 Alpha  occ. eigenvalues --   -0.36804  -0.35340  -0.34361  -0.34295  -0.33348
 Alpha  occ. eigenvalues --   -0.33174  -0.32622  -0.32123  -0.32027  -0.31738
 Alpha  occ. eigenvalues --   -0.31565  -0.31029  -0.29744  -0.29313  -0.26365
 Alpha  occ. eigenvalues --   -0.22712
 Alpha virt. eigenvalues --   -0.01935   0.04450   0.08659   0.09234   0.09807
 Alpha virt. eigenvalues --    0.10357   0.11484   0.12037   0.12318   0.12642
 Alpha virt. eigenvalues --    0.13223   0.13534   0.14251   0.14950   0.15391

 Mulliken charges:
               1
     1  C   -0.472343
     2  C    0.246067
     3  C    0.232251
     4  C   -0.257714
     5  C   -0.023215
     6  C   -0.204414
     7  C   -0.180342
     8  C   -0.182450
     9  C   -0.179231
    10  C   -0.158131
    11  C   -0.162951
    12  C   -0.379055
    13  C   -0.152841
    14  C   -0.182869
    15  C   -0.165893
    16  C   -0.381857
    17  H    0.190701
    18  H    0.099844
    19  H    0.072017
    20  H    0.092079
    21  H    0.094443
    22  H    0.099360
    23  H    0.090555
    24  H    0.091072
    25  H    0.092202
    26  H    0.090744
    27  H    0.090206
    28  H    0.089800
    29  H    0.090074
    30  H    0.092930
    31  H    0.092787
    32  H    0.112564
    33  H    0.109710
    34  H    0.112431
    35  H    0.074413
    36  H    0.101543
    37  H    0.092170
    38  H    0.100904
    39  H    0.093617
    40  H    0.114016
    41  H    0.110232
    42  H    0.114574
 Sum of Mulliken charges =  -0.00000

 Dipole moment (field-independent basis, Debye):
    X=              0.5916    Y=              0.2627    Z=             -0.1647  Tot=              0.6679
 Quadrupole moment (field-independent basis, Debye-Ang):
   XX=           -102.1133   YY=           -102.3016   ZZ=            -99.1227
   XY=             -0.2950   XZ=             -2.5024   YZ=              1.0061

  Exact polarizability: 228.394   8.684 158.446 -23.529   3.400 143.095
 Approx polarizability: 283.136   2.690 218.645 -51.267   9.897 246.049

                      1                      2                      3
                      A                      A                      A
 Frequencies --     24.3859                30.1437                38.5507
 Red. masses --      4.0761                 3.9122                 1.5906
 Frc consts  --      0.0014                 0.0021                 0.0014
 IR Inten    --      0.0130                 0.0017                 0.0032

                      4                      5                      6
                      A                      A                      A
 Frequencies --     63.0618                69.6246                81.9985
 Red. masses --      3.2513                 3.5291                 2.6997
 Frc consts  --      0.0076                 0.0101                 0.0107
 IR Inten    --      0.0193                 0.0446                 0.0285

                      7                      8                      9
                      A                      A                      A
 Frequencies --     91.1037               101.7755               108.3348
 Red. masses --      1.8368                 2.4122                 2.0289
 Frc consts  --      0.0090                 0.0147                 0.0140
 IR Inten    --      0.0448                 0.1103                 0.0497

                     10                     11                     12
                      A                      A                      A
 Frequencies --    134.2535               154.4486               159.8028
 Red. masses --      2.4146                 3.1964                 2.1245
 Frc consts  --      0.0256                 0.0449                 0.0320
 IR Inten    --      0.1288                 0.3441                 0.0536

                     13                     14                     15
                      A                      A                      A
 Frequencies --    175.4116               210.3331               241.1088
 Red. masses --      2.6079                 3.7728                 2.6948
 Frc consts  --      0.0473                 0.0983                 0.0923
 IR Inten    --      0.2920                 0.1052                 0.1970

                     16                     17                     18
                      A                      A                      A
 Frequencies --    243.4835               247.7591               263.9190
 Red. masses --      1.3946                 1.1223                 1.9998
 Frc consts  --      0.0487                 0.0406                 0.0821
 IR Inten    --      0.3729                 0.0004                 0.4382

                     19                     20                     21
                      A                      A                      A
 Frequencies --    294.6492               331.0414               347.8672
 Red. masses --      3.0369                 2.9633                 4.4265
 Frc consts  --      0.1553                 0.1913                 0.3156
 IR Inten    --      0.8847                 0.1618                 2.0537

                     22                     23                     24
                      A                      A                      A
 Frequencies --    396.5356               426.0320               480.3082
 Red. masses --      2.9908                 3.7031                 2.9166
 Frc consts  --      0.2771                 0.3960                 0.3964
 IR Inten    --      0.0135                 0.2910                 0.0820

                     25                     26                     27
                      A                      A                      A
 Frequencies --    535.1376               561.1292               589.7091
 Red. masses --      4.3599                 3.5593                 1.3086
 Frc consts  --      0.7356                 0.6603                 0.2681
 IR Inten    --      2.1785                 3.3162                40.0769

                     28                     29                     30
                      A                      A                      A
 Frequencies --    613.4911               627.4364               639.0118
 Red. masses --      3.6923                 1.5345                 2.1374
 Frc consts  --      0.8188                 0.3559                 0.5142
 IR Inten    --      1.8071                26.0772                12.4306

                     31                     32                     33
                      A                      A                      A
 Frequencies --    731.0647               733.1244               741.4521
 Red. masses --      1.0795                 1.1407                 1.1267
 Frc consts  --      0.3399                 0.3612                 0.3650
 IR Inten    --      3.0851                 1.4832                 0.8795

                     34                     35                     36
                      A                      A                      A
 Frequencies --    762.0010               803.6734               842.7155
 Red. masses --      1.1710                 1.4273                 1.2984
 Frc consts  --      0.4006                 0.5432                 0.5433
 IR Inten    --      1.8837                 0.2449                 5.1975

                     37                     38                     39
                      A                      A                      A
 Frequencies --    862.0788               888.9616               898.0905
 Red. masses --      1.6743                 1.8408                 1.9121
 Frc consts  --      0.7331                 0.8571                 0.9087
 IR Inten    --     11.8639                 4.3573                 0.8909

                     40                     41                     42
                      A                      A                      A
 Frequencies --    908.8689               919.5106               946.9771
 Red. masses --      1.7072                 1.9856                 1.3919
 Frc consts  --      0.8309                 0.9892                 0.7354
 IR Inten    --      1.3351                 2.1283                 0.5692

                     43                     44                     45
                      A                      A                      A
 Frequencies --    969.2813               996.7924              1015.7757
 Red. masses --      2.3504                 4.1838                 1.1932
 Frc consts  --      1.3011                 2.4493                 0.7254
 IR Inten    --      2.4046                 0.5446                 0.0275

                     46                     47                     48
                      A                      A                      A
 Frequencies --   1027.2426              1043.6025              1051.5333
 Red. masses --      2.9379                 3.0122                 2.6889
 Frc consts  --      1.8265                 1.9328                 1.7518
 IR Inten    --      0.9130                 0.4693                 0.4878

                     49                     50                     51
                      A                      A                      A
 Frequencies --   1065.2742              1069.6688              1072.9055
 Red. masses --      2.3640                 2.1293                 2.2202
 Frc consts  --      1.5806                 1.4354                 1.5058
 IR Inten    --      1.1506                 0.2908                 0.5033

                     52                     53                     54
                      A                      A                      A
 Frequencies --   1074.7106              1091.2631              1119.5392
 Red. masses --      1.1729                 2.4036                 1.9657
 Frc consts  --      0.7982                 1.6864                 1.4516
 IR Inten    --      0.2815                 1.5649                 2.1246

                     55                     56                     57
                      A                      A                      A
 Frequencies --   1136.3018              1171.5660              1176.6661
 Red. masses --      2.4857                 2.3589                 2.4854
 Frc consts  --      1.8910                 1.9077                 2.0275
 IR Inten    --      0.6474                 3.3899                 0.2121

                     58                     59                     60
                      A                      A                      A
 Frequencies --   1203.0489              1213.9810              1220.0320
 Red. masses --      1.5096                 1.5208                 1.6978
 Frc consts  --      1.2873                 1.3205                 1.4889
 IR Inten    --      0.3914                12.6773                 0.3774

                     61                     62                     63
                      A                      A                      A
 Frequencies --   1244.1722              1251.3609              1261.6694
 Red. masses --      1.3635                 1.4896                 1.5935
 Frc consts  --      1.2435                 1.3743                 1.4945
 IR Inten    --      2.2644                 0.5624                 6.5648

                     64                     65                     66
                      A                      A                      A
 Frequencies --   1268.0573              1292.2294              1305.6648
 Red. masses --      1.4558                 1.3492                 1.3162
 Frc consts  --      1.3792                 1.3274                 1.3220
 IR Inten    --      0.9109                 0.3441                 1.5955

                     67                     68                     69
                      A                      A                      A
 Frequencies --   1309.2276              1325.2515              1328.4727
 Red. masses --      1.3015                 1.0438                 1.1348
 Frc consts  --      1.3144                 1.0801                 1.1800
 IR Inten    --      0.8513                 0.3855                 0.8447

                     70                     71                     72
                      A                      A                      A
 Frequencies --   1331.5542              1336.9738              1340.3494
 Red. masses --      1.2057                 1.0754                 1.2151
 Frc consts  --      1.2595                 1.1325                 1.2862
 IR Inten    --      1.1819                 0.4518                 1.5711

                     73                     74                     75
                      A                      A                      A
 Frequencies --   1354.1304              1369.8846              1386.9157
 Red. masses --      1.3402                 1.5018                 1.5307
 Frc consts  --      1.4479                 1.6604                 1.7347
 IR Inten    --      0.3627                 0.9830                 0.5669

                     76                     77                     78
                      A                      A                      A
 Frequencies --   1393.5491              1399.9745              1401.6329
 Red. masses --      1.6045                 1.5991                 1.6012
 Frc consts  --      1.8358                 1.8465                 1.8534
 IR Inten    --      1.9738                 1.1430                 0.8996

                     79                     80                     81
                      A                      A                      A
 Frequencies --   1412.3626              1413.4962              1479.2575
 Red. masses --      1.2330                 1.2587                 1.0721
 Frc consts  --      1.4492                 1.4817                 1.3822
 IR Inten    --      0.5164                 0.4794                 1.4443

                     82                     83                     84
                      A                      A                      A
 Frequencies --   1482.1022              1482.9144              1484.6035
 Red. masses --      1.0752                 1.0721                 1.0718
 Frc consts  --      1.3915                 1.3891                 1.3918
 IR Inten    --      0.3295                 0.1515                 0.6939

                     85                     86                     87
                      A                      A                      A
 Frequencies --   1489.7416              1493.2383              1499.2111
 Red. masses --      1.0767                 1.0643                 1.0734
 Frc consts  --      1.4079                 1.3982                 1.4214
 IR Inten    --      0.7761                 1.3223                 1.4584

                     88                     89                     90
                      A                      A                      A
 Frequencies --   1499.6237              1499.8853              1508.3932
 Red. masses --      1.0471                 1.0403                 1.0865
 Frc consts  --      1.3875                 1.3789                 1.4565
 IR Inten    --      4.0798                 4.9867                 1.1969

                     91                     92                     93
                      A                      A                      A
 Frequencies --   1510.0807              1515.4190              1658.2197
 Red. masses --      1.0826                 1.0954                 7.8179
 Frc consts  --      1.4545                 1.4822                12.6655
 IR Inten    --      2.4651                 3.6409                 1.1717

                     94                     95                     96
                      A                      A                      A
 Frequencies --   2216.2069              2998.3016              2999.0474
 Red. masses --      6.1905                 1.0575                 1.0578
 Frc consts  --     17.9142                 5.6014                 5.6056
 IR Inten    --      2.3200                 0.3567                 0.7552

                     97                     98                     99
                      A                      A                      A
 Frequencies --   3002.3076              3003.6246              3005.4944
 Red. masses --      1.0594                 1.0683                 1.0618
 Frc consts  --      5.6262                 5.6783                 5.6511
 IR Inten    --      3.7305                11.6686                 1.7363

                    100                    101                    102
                      A                      A                      A
 Frequencies --   3007.1918              3012.0885              3015.9682
 Red. masses --      1.0686                 1.0640                 1.0630
 Frc consts  --      5.6936                 5.6874                 5.6971
 IR Inten    --      3.8082                27.3934                59.4036

                    103                    104                    105
                      A                      A                      A
 Frequencies --   3016.7004              3019.0282              3022.0450
 Red. masses --      1.0649                 1.0956                 1.0830
 Frc consts  --      5.7100                 5.8835                 5.8273
 IR Inten    --     88.2416                 8.6900                35.8690

                    106                    107                    108
                      A                      A                      A
 Frequencies --   3025.5259              3027.8290              3028.6546
 Red. masses --      1.0953                 1.0357                 1.0363
 Frc consts  --      5.9074                 5.5942                 5.6009
 IR Inten    --     10.3868                46.8180                33.0450

                    109                    110                    111
                      A                      A                      A
 Frequencies --   3032.8927              3036.7037              3042.8143
 Red. masses --      1.0985                 1.0955                 1.1037
 Frc consts  --      5.9533                 5.9518                 6.0208
 IR Inten    --     10.1338                11.1827                 4.5772

                    112                    113                    114
                      A                      A                      A
 Frequencies --   3055.4961              3058.5519              3065.5737
 Red. masses --      1.1047                 1.1027                 1.1047
 Frc consts  --      6.0766                 6.0777                 6.1166
 IR Inten    --      4.3406                24.0981               147.3285

                    115                    116                    117
                      A                      A                      A
 Frequencies --   3093.9401              3095.8037              3099.3182
 Red. masses --      1.1020                 1.1021                 1.1010
 Frc consts  --      6.2153                 6.2235                 6.2309
 IR Inten    --     57.6492                51.4392                38.7416

                    118                    119                    120
                      A                      A                      A
 Frequencies --   3100.4254              3189.1700              3502.9907
 Red. masses --      1.1011                 1.0983                 1.1568
 Frc consts  --      6.2359                 6.5817                 8.3638
 IR Inten    --     36.0334                18.9106                94.3323

 - Thermochemistry -
 -------------------
 Temperature   298.150 Kelvin.  Pressure   1.00000 Atm.
 Atom     1 has atomic number  6 and mass  12.00000

 Molecular mass:   218.20345 amu.
 Principal axes and moments of inertia in atomic units:
                           1         2         3
     Eigenvalues --  2207.34908********************
           X            0.99992  -0.01233   0.00342
           Y            0.01233   0.99992   0.00228
           Z           -0.00345  -0.00224   0.99999
 This molecule is an asymmetric top.
 Rotational symmetry number  1.
 Warning -- assumption of classical behavior for rotation
           may cause significant error
 Rotational temperatures (Kelvin)      0.03924     0.00751     0.00662
 Rotational constants (GHZ):           0.81761     0.15652     0.13803
 Zero-point vibrational energy     993755.0 (Joules/Mol)
                                  237.51315 (Kcal/Mol)
 Warning -- explicit consideration of  28 degrees of freedom as
           vibrations may cause significant error
 Vibrational temperatures:     35.09    43.37    55.47    90.73   100.17
          (Kelvin)            117.98   131.08   146.43   155.87   193.16
                              222.22   229.92   252.38   302.62   346.90
                              350.32   356.47   379.72   423.93   476.29
                              500.50   570.53   612.96   691.06   769.94
                              807.34   848.46   882.68   902.74   919.40
                             1051.84  1054.80  1066.78  1096.35  1156.31
                             1212.48  1240.34  1279.02  1292.15  1307.66
                             1322.97  1362.49  1394.58  1434.16  1461.47
                             1477.97  1501.51  1512.92  1532.69  1539.01
                             1543.67  1546.27  1570.08  1610.77  1634.88
                             1685.62  1692.96  1730.92  1746.65  1755.35
                             1790.09  1800.43  1815.26  1824.45  1859.23
                             1878.56  1883.69  1906.74  1911.38  1915.81
                             1923.61  1928.46  1948.29  1970.96  1995.46
                             2005.01  2014.25  2016.64  2032.07  2033.71
                             2128.32  2132.41  2133.58  2136.01  2143.41
                             2148.44  2157.03  2157.62  2158.00  2170.24
                             2172.67  2180.35  2385.81  3188.63  4313.89
                             4314.96  4319.65  4321.55  4324.24  4326.68
                             4333.72  4339.31  4340.36  4343.71  4348.05
                             4353.06  4356.37  4357.56  4363.66  4369.14
                             4377.93  4396.18  4400.57  4410.68  4451.49
                             4454.17  4459.23  4460.82  4588.50  5040.02

 Zero-point correction=                           0.378501 (Hartree/Particle)
 Thermal correction to Energy=                    0.398148
 Thermal correction to Enthalpy=                  0.399092
 Thermal correction to Gibbs Free Energy=         0.328279
 Sum of electronic and zero-point Energies=           -624.937939
 Sum of electronic and thermal Energies=              -624.918292
 Sum of electronic and thermal Enthalpies=            -624.917348
 Sum of electronic and thermal Free Energies=         -624.988161

                     E (Thermal)             CV                S
                      KCal/Mol        Cal/Mol-Kelvin    Cal/Mol-Kelvin
 Total                  249.841             71.507            149.039
 Electronic               0.000              0.000              0.000
 Translational            0.889              2.981             42.044
 Rotational               0.889              2.981             34.164
 Vibrational            248.064             65.545             72.831
 Vibration     1          0.593              1.985              6.241
 Vibration     2          0.594              1.984              5.820
 Vibration     3          0.594              1.981              5.332
 Vibration     4          0.597              1.972              4.359
 Vibration     5          0.598              1.969              4.164
 Vibration     6          0.600              1.961              3.842
 Vibration     7          0.602              1.956              3.636
 Vibration     8          0.604              1.948              3.420
 Vibration     9          0.606              1.943              3.299
 Vibration    10          0.613              1.919              2.884
 Vibration    11          0.620              1.898              2.617
 Vibration    12          0.622              1.892              2.552
 Vibration    13          0.627              1.873              2.377
 Vibration    14          0.642              1.825              2.041
 Vibration    15          0.658              1.777              1.795
 Vibration    16          0.659              1.774              1.777
 Vibration    17          0.661              1.766              1.746
 Vibration    18          0.670              1.739              1.636
 Vibration    19          0.689              1.684              1.447
 Vibration    20          0.713              1.614              1.255
 Vibration    21          0.725              1.580              1.176
 Vibration    22          0.763              1.478              0.975
 Vibration    23          0.788              1.414              0.872
 Vibration    24          0.837              1.294              0.709
 Vibration    25          0.890              1.172              0.576
 Vibration    26          0.917              1.115              0.522
 Vibration    27          0.947              1.054              0.468
 Vibration    28          0.973              1.003              0.427

 Optimization completed.
    -- Stationary point found.
 Normal termination of Gaussian 16 at Mon May 22 06:10:07 2023.
