 Gaussian 16, Revision A.03,
 Gaussian 16:  ES64L-G16RevA.03 25-Dec-2016

 -----------------------------
 # opt freq b3lyp/6-31g(2df,p)
 -----------------------------

 -------------------
 Title Card Required
 -------------------
 Symbolic Z-matrix:
 Charge =  0 Multiplicity = 1

 SCF Done:  E(RB3LYP) =  -667.030768166     A.U. after   13 cycles
 SCF Done:  E(RB3LYP) =  -667.069862226     A.U. after   12 cycles
 SCF Done:  E(RB3LYP) =  -667.073552456     A.U. after   12 cycles
 SCF Done:  E(RB3LYP) =  -667.088539157     A.U. after   13 cycles
 SCF Done:  E(RB3LYP) =  -667.082016680     A.U. after   13 cycles
 SCF Done:  E(RB3LYP) =  -667.092175624     A.U. after   11 cycles
 SCF Done:  E(RB3LYP) =  -667.092708102     A.U. after   11 cycles
 SCF Done:  E(RB3LYP) =  -667.092460534     A.U. after   11 cycles
 SCF Done:  E(RB3LYP) =  -667.093241413     A.U. after    9 cycles
 SCF Done:  E(RB3LYP) =  -667.093617665     A.U. after   10 cycles
 SCF Done:  E(RB3LYP) =  -667.094171981     A.U. after   10 cycles
 SCF Done:  E(RB3LYP) =  -667.094299395     A.U. after   11 cycles
 SCF Done:  E(RB3LYP) =  -667.094504124     A.U. after    9 cycles
 SCF Done:  E(RB3LYP) =  -667.094614043     A.U. after    9 cycles
 SCF Done:  E(RB3LYP) =  -667.094652208     A.U. after    9 cycles
 SCF Done:  E(RB3LYP) =  -667.094657071     A.U. after    8 cycles
 SCF Done:  E(RB3LYP) =  -667.094657853     A.U. after    7 cycles
 SCF Done:  E(RB3LYP) =  -667.094658082     A.U. after    6 cycles
 SCF Done:  E(RB3LYP) =  -667.094658121     A.U. after    5 cycles
 Optimization completed.
    -- Stationary point found.
 Normal termination of Gaussian 16 at Tue May 23 20:37:45 2023.

 ----------------------------------------------------------------------
 #N Geom=AllCheck Guess=TCheck SCRF=Check GenChk RB3LYP/6-31G(2df,p) Fr
 eq
 ----------------------------------------------------------------------

 Structure from the checkpoint file:  "CtCCCCqCCCCCrCCCCCCC.chk"
 -------------------
 Title Card Required
 -------------------
 Charge =  0 Multiplicity = 1

                         Standard orientation:
 ---------------------------------------------------------------------
 Center     Atomic      Atomic             Coordinates (Angstroms)
 Number     Number       Type             X           Y           Z
 ---------------------------------------------------------------------
      1          6           0        4.949752   -4.242408   -0.004986
      2          6           0        4.302995   -3.244208    0.170085
      3          6           0        3.490918   -2.049153    0.367517
      4          6           0        2.044688   -2.224662   -0.141727
      5          6           0        1.120259   -1.016473    0.101912
      6          6           0        1.628400    0.272860   -0.598276
      7          6           0        2.334454    1.275300    0.325581
      8          6           0        2.842852    2.521624   -0.406332
      9          6           0        3.526905    3.537333    0.515259
     10          6           0        4.032527    4.778789   -0.224531
     11          6           0       -0.317472   -1.375444   -0.327925
     12          6           0       -1.398226   -0.425057    0.201456
     13          6           0       -2.811566   -0.800139   -0.259074
     14          6           0       -3.899567    0.133070    0.283050
     15          6           0       -5.312431   -0.242369   -0.175979
     16          6           0       -6.401358    0.689791    0.366150
     17          6           0       -7.809606    0.306773   -0.096841
     18          1           0        5.531232   -5.117917   -0.154019
     19          1           0        3.970637   -1.203375   -0.139455
     20          1           0        3.473402   -1.793615    1.435494
     21          1           0        1.618350   -3.108940    0.345375
     22          1           0        2.074714   -2.450526   -1.215313
     23          1           0        1.098366   -0.830065    1.186582
     24          1           0        0.786033    0.788414   -1.074718
     25          1           0        2.301710   -0.001749   -1.422082
     26          1           0        3.175007    0.789725    0.838402
     27          1           0        1.637505    1.578772    1.119198
     28          1           0        2.002891    3.008287   -0.922147
     29          1           0        3.544840    2.219135   -1.196367
     30          1           0        4.365860    3.050567    1.030283
     31          1           0        2.824570    3.840619    1.303133
     32          1           0        4.763049    4.509909   -0.995775
     33          1           0        4.515463    5.484007    0.459211
     34          1           0        3.210097    5.306440   -0.720519
     35          1           0       -0.550397   -2.391658    0.016937
     36          1           0       -0.364488   -1.411797   -1.425897
     37          1           0       -1.183184    0.605635   -0.110343
     38          1           0       -1.364179   -0.420428    1.300054
     39          1           0       -3.031987   -1.831958    0.048529
     40          1           0       -2.847144   -0.799993   -1.357530
     41          1           0       -3.679897    1.164935   -0.025433
     42          1           0       -3.863020    0.133493    1.381570
     43          1           0       -5.532706   -1.274255    0.132181
     44          1           0       -5.349992   -0.242751   -1.274565
     45          1           0       -6.181519    1.720476    0.057203
     46          1           0       -6.363589    0.689669    1.463716
     47          1           0       -7.887595    0.331988   -1.189603
     48          1           0       -8.564107    0.989847    0.306025
     49          1           0       -8.071069   -0.706663    0.227837
 ---------------------------------------------------------------------

 SCF Done:  E(RB3LYP) =  -667.094658121     A.U. after    1 cycles

 The electronic state is 1-A.
 Alpha  occ. eigenvalues --  -10.20302 -10.18391 -10.18214 -10.17677 -10.17639
 Alpha  occ. eigenvalues --  -10.17547 -10.17539 -10.17510 -10.17505 -10.17497
 Alpha  occ. eigenvalues --  -10.17467 -10.17433 -10.17371 -10.17318 -10.17045
 Alpha  occ. eigenvalues --  -10.16952 -10.16352  -0.82638  -0.80324  -0.79498
 Alpha  occ. eigenvalues --   -0.78118  -0.76151  -0.73722  -0.71979  -0.69493
 Alpha  occ. eigenvalues --   -0.66749  -0.64784  -0.60759  -0.59820  -0.57475
 Alpha  occ. eigenvalues --   -0.57302  -0.57180  -0.55626  -0.51982  -0.48111
 Alpha  occ. eigenvalues --   -0.47881  -0.46498  -0.45735  -0.45161  -0.43359
 Alpha  occ. eigenvalues --   -0.42737  -0.42651  -0.42125  -0.41393  -0.40200
 Alpha  occ. eigenvalues --   -0.39817  -0.39386  -0.38569  -0.37310  -0.36327
 Alpha  occ. eigenvalues --   -0.35994  -0.35391  -0.34972  -0.34457  -0.33643
 Alpha  occ. eigenvalues --   -0.33353  -0.32596  -0.32337  -0.32094  -0.32028
 Alpha  occ. eigenvalues --   -0.31831  -0.31631  -0.31430  -0.29805  -0.29354
 Alpha  occ. eigenvalues --   -0.25755  -0.25592
 Alpha virt. eigenvalues --    0.05976   0.06142   0.08407   0.08931   0.09501
 Alpha virt. eigenvalues --    0.10270   0.10452   0.10854   0.11297   0.12348
 Alpha virt. eigenvalues --    0.12811   0.13183   0.13729   0.14095   0.14383

 Mulliken charges:
               1
     1  C   -0.428131
     2  C    0.294905
     3  C   -0.380461
     4  C   -0.188297
     5  C    0.017347
     6  C   -0.198914
     7  C   -0.183667
     8  C   -0.159915
     9  C   -0.164549
    10  C   -0.378842
    11  C   -0.208570
    12  C   -0.192540
    13  C   -0.178031
    14  C   -0.179381
    15  C   -0.158248
    16  C   -0.162889
    17  C   -0.379047
    18  H    0.190671
    19  H    0.132497
    20  H    0.126832
    21  H    0.103928
    22  H    0.105608
    23  H    0.065100
    24  H    0.092573
    25  H    0.090295
    26  H    0.095247
    27  H    0.093773
    28  H    0.090662
    29  H    0.090795
    30  H    0.093956
    31  H    0.093328
    32  H    0.113096
    33  H    0.110356
    34  H    0.112612
    35  H    0.088411
    36  H    0.091413
    37  H    0.094841
    38  H    0.090501
    39  H    0.091420
    40  H    0.091133
    41  H    0.090046
    42  H    0.090293
    43  H    0.089987
    44  H    0.089784
    45  H    0.092662
    46  H    0.092809
    47  H    0.112441
    48  H    0.109632
    49  H    0.112528
 Sum of Mulliken charges =  -0.00000

 Dipole moment (field-independent basis, Debye):
    X=             -0.6763    Y=              0.6819    Z=              0.0856  Tot=              0.9642
 Quadrupole moment (field-independent basis, Debye-Ang):
   XX=           -115.3693   YY=           -112.1839   ZZ=           -111.0976
   XY=              1.4929   XZ=             -0.6058   YZ=              0.0816

  Exact polarizability: 219.892 -14.938 197.707  -0.700   3.144 146.189
 Approx polarizability: 253.031 -22.016 268.230  -3.900   4.676 235.680

                      1                      2                      3
                      A                      A                      A
 Frequencies --     16.1567                26.3991                35.1628
 Red. masses --      3.8416                 3.6984                 1.6369
 Frc consts  --      0.0006                 0.0015                 0.0012
 IR Inten    --      0.0030                 0.0362                 0.0051

                      4                      5                      6
                      A                      A                      A
 Frequencies --     39.7713                50.0345                62.3180
 Red. masses --      3.1583                 1.9353                 2.8796
 Frc consts  --      0.0029                 0.0029                 0.0066
 IR Inten    --      0.0261                 0.0137                 0.0085

                      7                      8                      9
                      A                      A                      A
 Frequencies --     81.9768                86.8769                94.9051
 Red. masses --      3.3377                 2.4733                 2.5132
 Frc consts  --      0.0132                 0.0110                 0.0133
 IR Inten    --      0.0088                 0.0073                 0.0011

                     10                     11                     12
                      A                      A                      A
 Frequencies --    100.6775               114.0313               131.4768
 Red. masses --      1.9469                 2.5813                 2.1244
 Frc consts  --      0.0116                 0.0198                 0.0216
 IR Inten    --      0.0041                 0.0151                 0.0012

                     13                     14                     15
                      A                      A                      A
 Frequencies --    140.6607               152.2909               160.0803
 Red. masses --      1.9671                 2.4964                 2.5176
 Frc consts  --      0.0229                 0.0341                 0.0380
 IR Inten    --      0.0099                 0.0550                 0.0427

                     16                     17                     18
                      A                      A                      A
 Frequencies --    175.8530               202.1829               215.9602
 Red. masses --      1.9830                 4.0243                 3.3786
 Frc consts  --      0.0361                 0.0969                 0.0928
 IR Inten    --      0.0274                 0.0175                 0.1289

                     19                     20                     21
                      A                      A                      A
 Frequencies --    246.9838               247.6667               268.4306
 Red. masses --      1.1205                 1.1211                 3.0017
 Frc consts  --      0.0403                 0.0405                 0.1274
 IR Inten    --      0.0021                 0.0008                 0.0825

                     22                     23                     24
                      A                      A                      A
 Frequencies --    277.5835               316.8945               354.3864
 Red. masses --      2.8869                 3.0183                 3.2400
 Frc consts  --      0.1311                 0.1786                 0.2397
 IR Inten    --      0.1545                 0.0870                 2.5748

                     25                     26                     27
                      A                      A                      A
 Frequencies --    377.9262               403.9752               435.3270
 Red. masses --      3.7300                 2.9640                 2.7235
 Frc consts  --      0.3139                 0.2850                 0.3041
 IR Inten    --      1.3721                 0.1688                 0.3698

                     28                     29                     30
                      A                      A                      A
 Frequencies --    468.3492               475.2820               539.7169
 Red. masses --      2.8319                 2.9764                 2.8623
 Frc consts  --      0.3660                 0.3961                 0.4912
 IR Inten    --      0.8046                 0.4173                 0.0642

                     31                     32                     33
                      A                      A                      A
 Frequencies --    561.5724               614.3749               632.5318
 Red. masses --      3.3689                 1.1980                 1.2186
 Frc consts  --      0.6260                 0.2664                 0.2873
 IR Inten    --      1.6415                43.0597                41.7571

                     34                     35                     36
                      A                      A                      A
 Frequencies --    728.3201               730.9336               735.6421
 Red. masses --      1.0722                 1.0615                 1.0888
 Frc consts  --      0.3351                 0.3341                 0.3472
 IR Inten    --      4.6397                 4.5688                 0.1188

                     37                     38                     39
                      A                      A                      A
 Frequencies --    749.1154               763.0064               770.0801
 Red. masses --      1.1271                 1.1639                 1.2448
 Frc consts  --      0.3727                 0.3992                 0.4349
 IR Inten    --      0.0344                 0.2538                 1.2536

                     40                     41                     42
                      A                      A                      A
 Frequencies --    823.9498               839.5922               879.4594
 Red. masses --      1.3224                 1.2546                 1.9569
 Frc consts  --      0.5290                 0.5211                 0.8918
 IR Inten    --      0.5592                 1.7799                 0.5150

                     43                     44                     45
                      A                      A                      A
 Frequencies --    898.0539               912.2500               931.5652
 Red. masses --      1.9393                 1.5569                 1.7751
 Frc consts  --      0.9215                 0.7634                 0.9076
 IR Inten    --      1.4560                 0.8686                 1.0003

                     46                     47                     48
                      A                      A                      A
 Frequencies --    948.0910               960.3945               986.4452
 Red. masses --      2.4880                 1.8303                 2.2401
 Frc consts  --      1.3177                 0.9947                 1.2843
 IR Inten    --      0.2860                 0.4997                 0.1420

                     49                     50                     51
                      A                      A                      A
 Frequencies --    999.2709              1001.8943              1015.6074
 Red. masses --      3.3741                 1.6058                 2.8361
 Frc consts  --      1.9851                 0.9497                 1.7235
 IR Inten    --      0.2279                 0.2117                 0.2994

                     52                     53                     54
                      A                      A                      A
 Frequencies --   1026.3724              1044.5583              1049.0191
 Red. masses --      2.7850                 1.6138                 2.5200
 Frc consts  --      1.7286                 1.0374                 1.6339
 IR Inten    --      0.1282                 0.5744                 0.3865

                     55                     56                     57
                      A                      A                      A
 Frequencies --   1052.6191              1054.8598              1069.4341
 Red. masses --      2.0214                 2.3725                 2.2520
 Frc consts  --      1.3196                 1.5554                 1.5175
 IR Inten    --      0.7786                 0.0486                 0.3840

                     58                     59                     60
                      A                      A                      A
 Frequencies --   1070.2693              1072.4625              1102.6858
 Red. masses --      2.2344                 2.3842                 2.4559
 Frc consts  --      1.5080                 1.6157                 1.7594
 IR Inten    --      0.0871                 0.1597                 0.7458

                     61                     62                     63
                      A                      A                      A
 Frequencies --   1114.3080              1141.8985              1147.6677
 Red. masses --      1.7465                 2.6120                 1.5292
 Frc consts  --      1.2777                 2.0067                 1.1867
 IR Inten    --      1.1037                 0.5688                 1.1020

                     64                     65                     66
                      A                      A                      A
 Frequencies --   1170.8638              1204.2396              1219.7983
 Red. masses --      1.9344                 1.5048                 1.6745
 Frc consts  --      1.5625                 1.2858                 1.4680
 IR Inten    --      1.6733                 2.8172                 0.5502

                     67                     68                     69
                      A                      A                      A
 Frequencies --   1234.1192              1244.5937              1257.7925
 Red. masses --      1.3881                 1.3486                 1.3623
 Frc consts  --      1.2457                 1.2308                 1.2699
 IR Inten    --      3.2133                 0.7365                 2.4838

                     70                     71                     72
                      A                      A                      A
 Frequencies --   1269.4758              1277.7893              1298.0554
 Red. masses --      1.2973                 1.2968                 1.2377
 Frc consts  --      1.2318                 1.2475                 1.2287
 IR Inten    --      3.0667                 0.2250                 0.6860

                     73                     74                     75
                      A                      A                      A
 Frequencies --   1300.5458              1307.9798              1313.8627
 Red. masses --      1.3193                 1.2495                 1.1388
 Frc consts  --      1.3148                 1.2595                 1.1583
 IR Inten    --      2.5865                 0.6779                 0.6466

                     76                     77                     78
                      A                      A                      A
 Frequencies --   1324.5547              1330.0919              1330.7176
 Red. masses --      1.0676                 1.1715                 1.0618
 Frc consts  --      1.1036                 1.2211                 1.1078
 IR Inten    --      0.4491                 0.2045                 0.1715

                     79                     80                     81
                      A                      A                      A
 Frequencies --   1333.3931              1336.4305              1338.0635
 Red. masses --      1.1424                 1.1137                 1.1692
 Frc consts  --      1.1967                 1.1720                 1.2334
 IR Inten    --      1.0492                 1.8104                 0.6263

                     82                     83                     84
                      A                      A                      A
 Frequencies --   1343.9895              1362.8630              1375.2652
 Red. masses --      1.2427                 1.3702                 1.3287
 Frc consts  --      1.3225                 1.4995                 1.4807
 IR Inten    --      0.6394                 0.3118                 3.3667

                     85                     86                     87
                      A                      A                      A
 Frequencies --   1383.5632              1391.7555              1397.2923
 Red. masses --      1.4770                 1.4963                 1.4965
 Frc consts  --      1.6658                 1.7076                 1.7215
 IR Inten    --      0.8726                 1.7086                 0.2638

                     88                     89                     90
                      A                      A                      A
 Frequencies --   1399.7227              1401.3942              1404.6080
 Red. masses --      1.6017                 1.6099                 1.5111
 Frc consts  --      1.8489                 1.8628                 1.7566
 IR Inten    --      1.0294                 0.3990                 1.9132

                     91                     92                     93
                      A                      A                      A
 Frequencies --   1413.3514              1413.4211              1470.9560
 Red. masses --      1.2476                 1.2595                 1.0796
 Frc consts  --      1.4683                 1.4825                 1.3763
 IR Inten    --      0.4699                 0.4257                 0.7940

                     94                     95                     96
                      A                      A                      A
 Frequencies --   1480.0846              1482.4232              1483.3884
 Red. masses --      1.0780                 1.0742                 1.0703
 Frc consts  --      1.3914                 1.3909                 1.3876
 IR Inten    --      0.2733                 0.0768                 0.0516

                     97                     98                     99
                      A                      A                      A
 Frequencies --   1484.1225              1485.7157              1489.3862
 Red. masses --      1.0718                 1.0712                 1.0773
 Frc consts  --      1.3910                 1.3931                 1.4080
 IR Inten    --      0.3704                 3.9557                 0.1690

                    100                    101                    102
                      A                      A                      A
 Frequencies --   1493.4934              1496.8641              1499.7802
 Red. masses --      1.0775                 1.0786                 1.0403
 Frc consts  --      1.4160                 1.4239                 1.3787
 IR Inten    --      1.4627                 1.3497                 4.8139

                    103                    104                    105
                      A                      A                      A
 Frequencies --   1499.8460              1500.3578              1505.7848
 Red. masses --      1.0403                 1.0832                 1.0806
 Frc consts  --      1.3788                 1.4366                 1.4436
 IR Inten    --      4.9069                 1.5288                 0.9176

                    106                    107                    108
                      A                      A                      A
 Frequencies --   1509.4935              1514.5441              1516.0175
 Red. masses --      1.0884                 1.0927                 1.0960
 Frc consts  --      1.4612                 1.4768                 1.4841
 IR Inten    --      0.4571                 5.1892                 2.5162

                    109                    110                    111
                      A                      A                      A
 Frequencies --   2237.5229              2981.6640              2997.8675
 Red. masses --      5.9400                 1.0804                 1.0576
 Frc consts  --     17.5214                 5.6592                 5.6002
 IR Inten    --      6.6432                 5.6536                 0.2816

                    112                    113                    114
                      A                      A                      A
 Frequencies --   2998.7599              2999.3652              3000.6668
 Red. masses --      1.0581                 1.0580                 1.0586
 Frc consts  --      5.6062                 5.6076                 5.6161
 IR Inten    --      2.8668                 3.0689                 1.4553

                    115                    116                    117
                      A                      A                      A
 Frequencies --   3004.4296              3005.6180              3011.7559
 Red. masses --      1.0596                 1.0616                 1.0614
 Frc consts  --      5.6351                 5.6503                 5.6726
 IR Inten    --      0.2474                 1.4600                10.4334

                    118                    119                    120
                      A                      A                      A
 Frequencies --   3012.7063              3015.2291              3016.6623
 Red. masses --      1.0607                 1.0621                 1.0610
 Frc consts  --      5.6722                 5.6891                 5.6890
 IR Inten    --      2.9383                11.6820               100.9029

                    121                    122                    123
                      A                      A                      A
 Frequencies --   3018.5407              3018.8586              3022.8296
 Red. masses --      1.0933                 1.0685                 1.0926
 Frc consts  --      5.8692                 5.7374                 5.8820
 IR Inten    --     16.6753                73.7158                 5.4421

                    124                    125                    126
                      A                      A                      A
 Frequencies --   3024.0873              3027.7970              3028.0437
 Red. masses --      1.0972                 1.0357                 1.0363
 Frc consts  --      5.9116                 5.5940                 5.5985
 IR Inten    --      3.4013                42.6687                42.9530

                    127                    128                    129
                      A                      A                      A
 Frequencies --   3029.7893              3030.9308              3035.7947
 Red. masses --      1.0623                 1.0989                 1.0972
 Frc consts  --      5.7453                 5.9476                 5.9577
 IR Inten    --     75.1858                 3.1190                 3.0669

                    130                    131                    132
                      A                      A                      A
 Frequencies --   3041.6198              3048.7496              3048.9623
 Red. masses --      1.1037                 1.1024                 1.0971
 Frc consts  --      6.0158                 6.0369                 6.0092
 IR Inten    --      3.9416                 0.7254                 1.7350

                    133                    134                    135
                      A                      A                      A
 Frequencies --   3054.6160              3063.0128              3066.2291
 Red. masses --      1.1046                 1.1048                 1.1032
 Frc consts  --      6.0725                 6.1073                 6.1109
 IR Inten    --      4.0913                94.5345               138.3092

                    136                    137                    138
                      A                      A                      A
 Frequencies --   3075.5875              3093.9026              3094.2306
 Red. masses --      1.1031                 1.1020                 1.1020
 Frc consts  --      6.1476                 6.2152                 6.2165
 IR Inten    --     65.8680                59.7881                58.8435

                    139                    140                    141
                      A                      A                      A
 Frequencies --   3099.3206              3099.8235              3508.1730
 Red. masses --      1.1010                 1.1010                 1.1617
 Frc consts  --      6.2309                 6.2329                 8.4238
 IR Inten    --     38.6873                39.9551                74.2431

 - Thermochemistry -
 -------------------
 Temperature   298.150 Kelvin.  Pressure   1.00000 Atm.
 Atom     1 has atomic number  6 and mass  12.00000

 Molecular mass:   236.25040 amu.
 Principal axes and moments of inertia in atomic units:
                           1         2         3
     Eigenvalues --  4509.60989********************
           X            0.99981   0.01936  -0.00022
           Y           -0.01936   0.99981   0.00108
           Z            0.00024  -0.00108   1.00000
 This molecule is an asymmetric top.
 Rotational symmetry number  1.
 Warning -- assumption of classical behavior for rotation
           may cause significant error
 Rotational temperatures (Kelvin)      0.01921     0.00646     0.00493
 Rotational constants (GHZ):           0.40020     0.13459     0.10274
 Zero-point vibrational energy    1189283.3 (Joules/Mol)
                                  284.24553 (Kcal/Mol)
 Warning -- explicit consideration of  32 degrees of freedom as
           vibrations may cause significant error
 Vibrational temperatures:     23.25    37.98    50.59    57.22    71.99
          (Kelvin)             89.66   117.95   125.00   136.55   144.85
                              164.07   189.17   202.38   219.11   230.32
                              253.01   290.90   310.72   355.35   356.34
                              386.21   399.38   455.94   509.88   543.75
                              581.23   626.34   673.85   683.82   776.53
                              807.98   883.95   910.07  1047.89  1051.65
                             1058.42  1077.81  1097.80  1107.97  1185.48
                             1207.99  1265.35  1292.10  1312.52  1340.31
                             1364.09  1381.79  1419.27  1437.73  1441.50
                             1461.23  1476.72  1502.89  1509.30  1514.48
                             1517.71  1538.68  1539.88  1543.03  1586.52
                             1603.24  1642.94  1651.24  1684.61  1732.63
                             1755.02  1775.62  1790.69  1809.68  1826.49
                             1838.45  1867.61  1871.20  1881.89  1890.36
                             1905.74  1913.71  1914.61  1918.46  1922.83
                             1925.17  1933.70  1960.86  1978.70  1990.64
                             2002.43  2010.39  2013.89  2016.29  2020.92
                             2033.50  2033.60  2116.38  2129.51  2132.88
                             2134.27  2135.32  2137.61  2142.89  2148.80
                             2153.65  2157.85  2157.94  2158.68  2166.49
                             2171.82  2179.09  2181.21  3219.30  4289.95
                             4313.26  4314.55  4315.42  4317.29  4322.70
                             4324.41  4333.25  4334.61  4338.24  4340.30
                             4343.01  4343.46  4349.18  4350.99  4356.32
                             4356.68  4359.19  4360.83  4367.83  4376.21
                             4386.47  4386.78  4394.91  4406.99  4411.62
                             4425.08  4451.44  4451.91  4459.23  4459.95
                             5047.48

 Zero-point correction=                           0.452974 (Hartree/Particle)
 Thermal correction to Energy=                    0.475577
 Thermal correction to Enthalpy=                  0.476522
 Thermal correction to Gibbs Free Energy=         0.397634
 Sum of electronic and zero-point Energies=           -666.641684
 Sum of electronic and thermal Energies=              -666.619081
 Sum of electronic and thermal Enthalpies=            -666.618137
 Sum of electronic and thermal Free Energies=         -666.697024

                     E (Thermal)             CV                S
                      KCal/Mol        Cal/Mol-Kelvin    Cal/Mol-Kelvin
 Total                  298.429             81.082            166.034
 Electronic               0.000              0.000              0.000
 Translational            0.889              2.981             42.281
 Rotational               0.889              2.981             35.317
 Vibrational            296.652             75.121             88.436
 Vibration     1          0.593              1.986              7.058
 Vibration     2          0.593              1.985              6.083
 Vibration     3          0.594              1.982              5.515
 Vibration     4          0.594              1.981              5.270
 Vibration     5          0.595              1.978              4.816
 Vibration     6          0.597              1.972              4.382
 Vibration     7          0.600              1.961              3.843
 Vibration     8          0.601              1.958              3.729
 Vibration     9          0.603              1.953              3.556
 Vibration    10          0.604              1.949              3.441
 Vibration    11          0.607              1.938              3.199
 Vibration    12          0.612              1.922              2.924
 Vibration    13          0.615              1.913              2.795
 Vibration    14          0.619              1.900              2.643
 Vibration    15          0.622              1.891              2.549
 Vibration    16          0.628              1.872              2.372
 Vibration    17          0.639              1.837              2.113
 Vibration    18          0.645              1.817              1.993
 Vibration    19          0.661              1.768              1.752
 Vibration    20          0.661              1.767              1.747
 Vibration    21          0.673              1.731              1.606
 Vibration    22          0.679              1.715              1.549
 Vibration    23          0.704              1.641              1.326
 Vibration    24          0.730              1.566              1.147
 Vibration    25          0.748              1.517              1.047
 Vibration    26          0.769              1.462              0.948
 Vibration    27          0.796              1.393              0.841
 Vibration    28          0.826              1.320              0.742
 Vibration    29          0.832              1.305              0.723
 Vibration    30          0.895              1.162              0.566
 Vibration    31          0.917              1.114              0.521
 Vibration    32          0.974              1.001              0.426

                           ! Non-Optimized Parameters !
 Normal termination of Gaussian 16 at Wed May 24 00:44:15 2023.
