 Gaussian 16, Revision A.03,
 Gaussian 16:  ES64L-G16RevA.03 25-Dec-2016

 -----------------------------
 # opt freq b3lyp/6-31g(2df,p)
 -----------------------------

 -------------------
 Title Card Required
 -------------------
 Symbolic Z-matrix:
 Charge =  0 Multiplicity = 1

 SCF Done:  E(RB3LYP) =  -619.270627142     A.U. after   13 cycles
 SCF Done:  E(RB3LYP) =  -619.295290018     A.U. after   12 cycles
 SCF Done:  E(RB3LYP) =  -619.298096505     A.U. after   12 cycles
 SCF Done:  E(RB3LYP) =  -619.286324764     A.U. after   14 cycles
 SCF Done:  E(RB3LYP) =  -619.298669318     A.U. after   12 cycles
 SCF Done:  E(RB3LYP) =  -619.300291463     A.U. after   11 cycles
 SCF Done:  E(RB3LYP) =  -619.295303369     A.U. after   13 cycles
 SCF Done:  E(RB3LYP) =  -619.299915286     A.U. after   12 cycles
 SCF Done:  E(RB3LYP) =  -619.300647265     A.U. after    9 cycles
 SCF Done:  E(RB3LYP) =  -619.300754261     A.U. after   11 cycles
 SCF Done:  E(RB3LYP) =  -619.301203487     A.U. after    8 cycles
 SCF Done:  E(RB3LYP) =  -619.301207364     A.U. after    8 cycles
 SCF Done:  E(RB3LYP) =  -619.301209648     A.U. after    8 cycles
 SCF Done:  E(RB3LYP) =  -619.301211503     A.U. after    8 cycles
 SCF Done:  E(RB3LYP) =  -619.301214541     A.U. after    9 cycles
 SCF Done:  E(RB3LYP) =  -619.301215667     A.U. after    9 cycles
 SCF Done:  E(RB3LYP) =  -619.301218336     A.U. after    9 cycles
 SCF Done:  E(RB3LYP) =  -619.301218654     A.U. after    9 cycles
 SCF Done:  E(RB3LYP) =  -619.301218852     A.U. after    7 cycles
 Optimization completed.
    -- Stationary point found.
 Normal termination of Gaussian 16 at Mon May 22 18:40:02 2023.

 ----------------------------------------------------------------------
 #N Geom=AllCheck Guess=TCheck SCRF=Check GenChk RB3LYP/6-31G(2df,p) Fr
 eq
 ----------------------------------------------------------------------

 Structure from the checkpoint file:  "CtCCCNC1CCCqCCCrN1CC.chk"
 -------------------
 Title Card Required
 -------------------
 Charge =  0 Multiplicity = 1

                         Standard orientation:
 ---------------------------------------------------------------------
 Center     Atomic      Atomic             Coordinates (Angstroms)
 Number     Number       Type             X           Y           Z
 ---------------------------------------------------------------------
      1          6           0        5.462434    2.106096   -0.036800
      2          6           0        4.753433    1.146606    0.108946
      3          6           0        3.866794    0.004383    0.287373
      4          6           0        2.402701    0.419176    0.512238
      5          7           0        1.564498   -0.760337    0.699545
      6          6           0        0.147465   -0.480189    0.799763
      7          6           0       -0.633020   -1.478500    1.670246
      8          6           0       -2.088253   -1.167264    1.284182
      9          6           0       -1.990501   -0.532264   -0.148746
     10          6           0       -2.621848    0.867197   -0.232427
     11          6           0       -4.144001    0.874313   -0.051193
     12          6           0       -4.751714    2.275428   -0.165230
     13          7           0       -0.553912   -0.496173   -0.505336
     14          6           0       -0.110921   -1.545652   -1.439011
     15          6           0        0.822921   -1.010896   -2.526398
     16          1           0        6.098104    2.946055   -0.168789
     17          1           0        4.209456   -0.593390    1.143714
     18          1           0        3.918056   -0.657611   -0.585230
     19          1           0        2.039218    0.959017   -0.367112
     20          1           0        2.351276    1.123574    1.360334
     21          1           0        1.866357   -1.273154    1.520052
     22          1           0       -0.016590    0.527868    1.223893
     23          1           0       -0.435830   -1.356942    2.740238
     24          1           0       -0.351269   -2.500452    1.389827
     25          1           0       -2.524671   -0.453026    1.990356
     26          1           0       -2.723496   -2.056180    1.297553
     27          1           0       -2.508881   -1.167221   -0.874662
     28          1           0       -2.366966    1.293006   -1.210027
     29          1           0       -2.158876    1.523572    0.517532
     30          1           0       -4.408234    0.443372    0.923017
     31          1           0       -4.598703    0.216295   -0.804551
     32          1           0       -4.343770    2.946761    0.598721
     33          1           0       -5.839080    2.252240   -0.041375
     34          1           0       -4.536551    2.721249   -1.142656
     35          1           0       -0.999902   -1.964501   -1.922967
     36          1           0        0.385956   -2.374211   -0.915763
     37          1           0        0.353087   -0.179438   -3.060647
     38          1           0        1.061962   -1.799003   -3.249875
     39          1           0        1.762318   -0.652914   -2.098716
 ---------------------------------------------------------------------

 SCF Done:  E(RB3LYP) =  -619.301218852     A.U. after    1 cycles

 The electronic state is 1-A.
 Alpha  occ. eigenvalues --  -14.31812 -14.30159 -10.22790 -10.21032 -10.20659
 Alpha  occ. eigenvalues --  -10.20087 -10.19152 -10.17850 -10.17847 -10.17658
 Alpha  occ. eigenvalues --  -10.17550 -10.16934 -10.16791 -10.16732 -10.15828
 Alpha  occ. eigenvalues --   -0.93767  -0.88506  -0.79113  -0.78807  -0.76862
 Alpha  occ. eigenvalues --   -0.72496  -0.71704  -0.70052  -0.65563  -0.62302
 Alpha  occ. eigenvalues --   -0.61326  -0.59003  -0.56507  -0.54467  -0.52241
 Alpha  occ. eigenvalues --   -0.50209  -0.48272  -0.47855  -0.45972  -0.44926
 Alpha  occ. eigenvalues --   -0.44298  -0.43604  -0.41710  -0.41113  -0.40191
 Alpha  occ. eigenvalues --   -0.39961  -0.39142  -0.37945  -0.37476  -0.36173
 Alpha  occ. eigenvalues --   -0.35778  -0.35214  -0.34164  -0.33290  -0.33193
 Alpha  occ. eigenvalues --   -0.32598  -0.32117  -0.30751  -0.30471  -0.26187
 Alpha  occ. eigenvalues --   -0.26100  -0.23112  -0.19975
 Alpha virt. eigenvalues --    0.05555   0.06031   0.07991   0.08591   0.09561
 Alpha virt. eigenvalues --    0.10201   0.11356   0.12150   0.12945   0.13259
 Alpha virt. eigenvalues --    0.13639   0.14112   0.14510   0.15223   0.15630

 Mulliken charges:
               1
     1  C   -0.446182
     2  C    0.301863
     3  C   -0.373523
     4  C   -0.131038
     5  N   -0.320225
     6  C    0.073211
     7  C   -0.245740
     8  C   -0.238226
     9  C    0.030567
    10  C   -0.167656
    11  C   -0.170325
    12  C   -0.378200
    13  N   -0.085265
    14  C   -0.120019
    15  C   -0.371375
    16  H    0.194428
    17  H    0.122587
    18  H    0.142251
    19  H    0.134499
    20  H    0.092679
    21  H    0.217853
    22  H    0.062564
    23  H    0.089966
    24  H    0.102945
    25  H    0.098751
    26  H    0.100148
    27  H    0.066209
    28  H    0.095225
    29  H    0.087718
    30  H    0.095983
    31  H    0.091972
    32  H    0.112692
    33  H    0.108798
    34  H    0.114375
    35  H    0.086960
    36  H    0.090844
    37  H    0.110868
    38  H    0.098047
    39  H    0.123769
 Sum of Mulliken charges =  -0.00000

 Dipole moment (field-independent basis, Debye):
    X=             -0.6305    Y=             -0.8045    Z=              1.3299  Tot=              1.6773
 Quadrupole moment (field-independent basis, Debye-Ang):
   XX=            -95.7359   YY=            -92.7909   ZZ=            -93.3192
   XY=              1.2276   XZ=              1.9133   YZ=             -1.0136

  Exact polarizability: 181.987   9.741 143.872  -4.018  -1.714 133.334
 Approx polarizability: 218.125  20.651 220.393  -2.833  -2.104 196.091

                      1                      2                      3
                      A                      A                      A
 Frequencies --     19.2985                34.7279                49.8498
 Red. masses --      3.2660                 3.8692                 2.8709
 Frc consts  --      0.0007                 0.0027                 0.0042
 IR Inten    --      0.1051                 0.0502                 0.0339

                      4                      5                      6
                      A                      A                      A
 Frequencies --     54.4208                75.6253                92.0129
 Red. masses --      2.1807                 2.2582                 2.3748
 Frc consts  --      0.0038                 0.0076                 0.0118
 IR Inten    --      0.0453                 0.1019                 0.0197

                      7                      8                      9
                      A                      A                      A
 Frequencies --     96.4509               119.8453               135.7983
 Red. masses --      2.1272                 2.6969                 2.3259
 Frc consts  --      0.0117                 0.0228                 0.0253
 IR Inten    --      0.0109                 0.3658                 0.6225

                     10                     11                     12
                      A                      A                      A
 Frequencies --    137.0251               205.8125               229.5541
 Red. masses --      2.7267                 1.7784                 1.6485
 Frc consts  --      0.0302                 0.0444                 0.0512
 IR Inten    --      0.6080                 0.2170                 0.2579

                     13                     14                     15
                      A                      A                      A
 Frequencies --    241.3525               253.4448               289.4208
 Red. masses --      1.6568                 1.8823                 2.6858
 Frc consts  --      0.0569                 0.0712                 0.1326
 IR Inten    --      0.0983                 0.0723                 0.3092

                     16                     17                     18
                      A                      A                      A
 Frequencies --    306.9325               317.3826               325.6497
 Red. masses --      2.8239                 3.5398                 2.1058
 Frc consts  --      0.1567                 0.2101                 0.1316
 IR Inten    --      2.4325                 0.5288                 0.2543

                     19                     20                     21
                      A                      A                      A
 Frequencies --    353.3290               385.1246               418.2752
 Red. masses --      3.1824                 3.1877                 3.1543
 Frc consts  --      0.2341                 0.2786                 0.3251
 IR Inten    --      4.3022                 1.6878                 3.8912

                     22                     23                     24
                      A                      A                      A
 Frequencies --    518.5358               523.4671               591.9433
 Red. masses --      3.1368                 3.1173                 2.3063
 Frc consts  --      0.4969                 0.5033                 0.4761
 IR Inten    --      5.8215                 9.6759                 2.7882

                     25                     26                     27
                      A                      A                      A
 Frequencies --    617.5391               618.7710               641.6509
 Red. masses --      2.6734                 1.2975                 1.2281
 Frc consts  --      0.6007                 0.2927                 0.2979
 IR Inten    --      4.5214                43.6271                44.4169

                     28                     29                     30
                      A                      A                      A
 Frequencies --    675.4964               715.4540               743.8931
 Red. masses --      3.6753                 1.3835                 1.1398
 Frc consts  --      0.9881                 0.4172                 0.3716
 IR Inten    --      6.1391                43.6715                 2.1639

                     31                     32                     33
                      A                      A                      A
 Frequencies --    771.1318               788.1023               795.2696
 Red. masses --      1.2916                 1.8064                 1.5374
 Frc consts  --      0.4525                 0.6610                 0.5729
 IR Inten    --      9.7399                 1.1383                 1.0191

                     34                     35                     36
                      A                      A                      A
 Frequencies --    832.5072               849.9724               897.5442
 Red. masses --      1.6139                 1.8810                 1.5882
 Frc consts  --      0.6590                 0.8007                 0.7538
 IR Inten    --      0.7467                 1.8284                 2.6137

                     37                     38                     39
                      A                      A                      A
 Frequencies --    915.8202               930.9132               968.4757
 Red. masses --      1.7102                 2.1496                 3.3828
 Frc consts  --      0.8451                 1.0976                 1.8694
 IR Inten    --      4.1681                 0.7254                 1.9645

                     40                     41                     42
                      A                      A                      A
 Frequencies --    982.4627              1004.5104              1023.2075
 Red. masses --      2.6294                 2.5076                 2.9141
 Frc consts  --      1.4953                 1.4908                 1.7975
 IR Inten    --      2.6263                 1.2728                13.0510

                     43                     44                     45
                      A                      A                      A
 Frequencies --   1024.5362              1050.2643              1055.0053
 Red. masses --      1.5730                 2.2369                 2.8157
 Frc consts  --      0.9728                 1.4538                 1.8465
 IR Inten    --      1.0105                 4.5431                16.2326

                     46                     47                     48
                      A                      A                      A
 Frequencies --   1066.2830              1082.0892              1100.8725
 Red. masses --      2.0886                 2.1420                 1.9596
 Frc consts  --      1.3991                 1.4777                 1.3992
 IR Inten    --      6.1908                20.0234                14.3697

                     49                     50                     51
                      A                      A                      A
 Frequencies --   1102.6061              1124.2985              1142.2537
 Red. masses --      2.1079                 2.1749                 2.2704
 Frc consts  --      1.5099                 1.6198                 1.7454
 IR Inten    --      4.2674                14.2764                14.1380

                     52                     53                     54
                      A                      A                      A
 Frequencies --   1147.6794              1173.2355              1199.8396
 Red. masses --      1.9625                 2.8615                 1.9114
 Frc consts  --      1.5230                 2.3207                 1.6212
 IR Inten    --     23.8255                63.0141                54.1177

                     55                     56                     57
                      A                      A                      A
 Frequencies --   1218.1715              1219.4962              1240.4064
 Red. masses --      1.6988                 1.6416                 1.4764
 Frc consts  --      1.4853                 1.4384                 1.3384
 IR Inten    --      9.8555                 7.8202                 7.1721

                     58                     59                     60
                      A                      A                      A
 Frequencies --   1262.8588              1292.3068              1294.5891
 Red. masses --      1.3838                 1.2997                 1.2898
 Frc consts  --      1.3003                 1.2789                 1.2736
 IR Inten    --      2.2290                 3.8435                 2.4409

                     61                     62                     63
                      A                      A                      A
 Frequencies --   1309.3176              1311.2217              1314.3738
 Red. masses --      1.2591                 1.1652                 1.2784
 Frc consts  --      1.2717                 1.1803                 1.3012
 IR Inten    --      1.9997                12.5076                 2.8920

                     64                     65                     66
                      A                      A                      A
 Frequencies --   1323.9551              1337.4148              1346.4125
 Red. masses --      1.2254                 1.2192                 1.2518
 Frc consts  --      1.2656                 1.2849                 1.3370
 IR Inten    --      5.5148                 3.7299                 8.9306

                     67                     68                     69
                      A                      A                      A
 Frequencies --   1366.6312              1374.0850              1385.5169
 Red. masses --      1.2201                 1.3031                 1.4158
 Frc consts  --      1.3426                 1.4496                 1.6014
 IR Inten    --      8.9363                 7.2363                 6.9132

                     70                     71                     72
                      A                      A                      A
 Frequencies --   1392.3791              1397.2858              1411.6823
 Red. masses --      1.4226                 1.2663                 1.2373
 Frc consts  --      1.6250                 1.4566                 1.4527
 IR Inten    --     31.4877                 5.7063                 2.7399

                     73                     74                     75
                      A                      A                      A
 Frequencies --   1421.2422              1433.5604              1473.4444
 Red. masses --      1.3128                 1.3830                 1.0777
 Frc consts  --      1.5623                 1.6746                 1.3786
 IR Inten    --      7.2072                19.5416                 4.7520

                     76                     77                     78
                      A                      A                      A
 Frequencies --   1473.9179              1480.7052              1485.3787
 Red. masses --      1.0916                 1.0751                 1.0480
 Frc consts  --      1.3973                 1.3887                 1.3623
 IR Inten    --     11.1712                 0.2091                 2.9596

                     79                     80                     81
                      A                      A                      A
 Frequencies --   1488.2075              1493.5465              1494.1041
 Red. masses --      1.0818                 1.1141                 1.1681
 Frc consts  --      1.4117                 1.4643                 1.5363
 IR Inten    --      0.9773                10.0515                15.0261

                     82                     83                     84
                      A                      A                      A
 Frequencies --   1499.5441              1503.7582              1506.3528
 Red. masses --      1.0404                 1.0929                 1.1010
 Frc consts  --      1.3784                 1.4560                 1.4719
 IR Inten    --      5.0098                 5.5000                 6.4706

                     85                     86                     87
                      A                      A                      A
 Frequencies --   1510.9878              1521.1894              2240.4808
 Red. masses --      1.0851                 1.0789                 5.9335
 Frc consts  --      1.4596                 1.4709                17.5488
 IR Inten    --      1.2885                 1.8665                 4.1466

                     88                     89                     90
                      A                      A                      A
 Frequencies --   2910.8109              2954.2575              3000.7733
 Red. masses --      1.0819                 1.0727                 1.0627
 Frc consts  --      5.4008                 5.5161                 5.6382
 IR Inten    --     44.5296                56.3985                27.9928

                     91                     92                     93
                      A                      A                      A
 Frequencies --   3007.5425              3010.8290              3015.1566
 Red. masses --      1.0620                 1.0647                 1.0631
 Frc consts  --      5.6599                 5.6865                 5.6941
 IR Inten    --      2.2949                18.2341                31.8114

                     94                     95                     96
                      A                      A                      A
 Frequencies --   3028.2819              3033.1611              3034.0670
 Red. masses --      1.0366                 1.0557                 1.0472
 Frc consts  --      5.6009                 5.7225                 5.6797
 IR Inten    --     37.9134                28.6682                29.7286

                     97                     98                     99
                      A                      A                      A
 Frequencies --   3036.4044              3038.8909              3047.1855
 Red. masses --      1.0812                 1.0926                 1.0690
 Frc consts  --      5.8730                 5.9448                 5.8485
 IR Inten    --     22.0305                 3.6782                23.4487

                    100                    101                    102
                      A                      A                      A
 Frequencies --   3055.8973              3057.4309              3067.0506
 Red. masses --      1.0922                 1.0948                 1.1001
 Frc consts  --      6.0093                 6.0297                 6.0971
 IR Inten    --     12.0593                26.1292                47.2339

                    103                    104                    105
                      A                      A                      A
 Frequencies --   3080.0374              3086.6595              3095.1593
 Red. masses --      1.0999                 1.0907                 1.1020
 Frc consts  --      6.1477                 6.1225                 6.2198
 IR Inten    --     26.2964                18.9130                45.2794

                    106                    107                    108
                      A                      A                      A
 Frequencies --   3099.3430              3100.0102              3101.2081
 Red. masses --      1.1012                 1.1028                 1.0991
 Frc consts  --      6.2324                 6.2439                 6.2280
 IR Inten    --     39.8309                40.5446                49.8803

                    109                    110                    111
                      A                      A                      A
 Frequencies --   3127.1007              3507.8639              3534.9465
 Red. masses --      1.1002                 1.1622                 1.0741
 Frc consts  --      6.3389                 8.4256                 7.9077
 IR Inten    --     40.5472                70.9948                 0.6606

 - Thermochemistry -
 -------------------
 Temperature   298.150 Kelvin.  Pressure   1.00000 Atm.
 Atom     1 has atomic number  6 and mass  12.00000

 Molecular mass:   208.19395 amu.
 Principal axes and moments of inertia in atomic units:
                           1         2         3
     Eigenvalues --  1981.021557356.751137653.07185
           X            0.99988  -0.01540  -0.00247
           Y            0.01544   0.99979   0.01371
           Z            0.00226  -0.01375   0.99990
 This molecule is an asymmetric top.
 Rotational symmetry number  1.
 Warning -- assumption of classical behavior for rotation
           may cause significant error
 Rotational temperatures (Kelvin)      0.04372     0.01177     0.01132
 Rotational constants (GHZ):           0.91102     0.24532     0.23582
 Zero-point vibrational energy     925141.4 (Joules/Mol)
                                  221.11409 (Kcal/Mol)
 Warning -- explicit consideration of  26 degrees of freedom as
           vibrations may cause significant error
 Vibrational temperatures:     27.77    49.97    71.72    78.30   108.81
          (Kelvin)            132.39   138.77   172.43   195.38   197.15
                              296.12   330.28   347.25   364.65   416.41
                              441.61   456.64   468.54   508.36   554.11
                              601.80   746.06   753.15   851.67   888.50
                              890.27   923.19   971.89  1029.38  1070.30
                             1109.49  1133.90  1144.22  1197.79  1222.92
                             1291.37  1317.66  1339.38  1393.42  1413.54
                             1445.27  1472.17  1474.08  1511.10  1517.92
                             1534.14  1556.88  1583.91  1586.40  1617.61
                             1643.45  1651.25  1688.02  1726.30  1752.68
                             1754.58  1784.67  1816.97  1859.34  1862.62
                             1883.82  1886.56  1891.09  1904.88  1924.24
                             1937.19  1966.28  1977.00  1993.45  2003.32
                             2010.38  2031.10  2044.85  2062.57  2119.96
                             2120.64  2130.40  2137.13  2141.20  2148.88
                             2149.68  2157.51  2163.57  2167.31  2173.97
                             2188.65  3223.55  4188.01  4250.52  4317.44
                             4327.18  4331.91  4338.14  4357.02  4364.04
                             4365.35  4368.71  4372.29  4384.22  4396.75
                             4398.96  4412.80  4431.49  4441.01  4453.24
                             4459.26  4460.22  4461.95  4499.20  5047.03
                             5086.00

 Zero-point correction=                           0.352368 (Hartree/Particle)
 Thermal correction to Energy=                    0.370186
 Thermal correction to Enthalpy=                  0.371130
 Thermal correction to Gibbs Free Energy=         0.304799
 Sum of electronic and zero-point Energies=           -618.948851
 Sum of electronic and thermal Energies=              -618.931033
 Sum of electronic and thermal Enthalpies=            -618.930089
 Sum of electronic and thermal Free Energies=         -618.996420

                     E (Thermal)             CV                S
                      KCal/Mol        Cal/Mol-Kelvin    Cal/Mol-Kelvin
 Total                  232.295             65.765            139.606
 Electronic               0.000              0.000              0.000
 Translational            0.889              2.981             41.904
 Rotational               0.889              2.981             33.078
 Vibrational            230.518             59.803             64.624
 Vibration     1          0.593              1.986              6.705
 Vibration     2          0.594              1.983              5.539
 Vibration     3          0.595              1.978              4.823
 Vibration     4          0.596              1.976              4.650
 Vibration     5          0.599              1.965              4.001
 Vibration     6          0.602              1.955              3.617
 Vibration     7          0.603              1.952              3.525
 Vibration     8          0.609              1.933              3.103
 Vibration     9          0.614              1.918              2.862
 Vibration    10          0.614              1.916              2.845
 Vibration    11          0.640              1.832              2.081
 Vibration    12          0.652              1.796              1.882
 Vibration    13          0.658              1.777              1.793
 Vibration    14          0.665              1.757              1.706
 Vibration    15          0.686              1.693              1.477
 Vibration    16          0.697              1.661              1.379
 Vibration    17          0.704              1.640              1.324
 Vibration    18          0.710              1.624              1.282
 Vibration    19          0.730              1.568              1.151
 Vibration    20          0.754              1.502              1.019
 Vibration    21          0.781              1.431              0.898
 Vibration    22          0.874              1.209              0.613
 Vibration    23          0.878              1.198              0.602
 Vibration    24          0.949              1.049              0.464
 Vibration    25          0.977              0.995              0.420
 Vibration    26          0.979              0.992              0.418

                           ! Non-Optimized Parameters !
 Normal termination of Gaussian 16 at Mon May 22 22:34:29 2023.
