 Gaussian 16, Revision A.03,
 Gaussian 16:  ES64L-G16RevA.03 25-Dec-2016

 -----------------------------
 # opt freq b3lyp/6-31g(2df,p)
 -----------------------------

 -------------------
 Title Card Required
 -------------------
 Symbolic Z-matrix:
 Charge =  0 Multiplicity = 1

 SCF Done:  E(RB3LYP) =  -93.4283320991     A.U. after   10 cycles
 SCF Done:  E(RB3LYP) =  -93.4284886512     A.U. after    8 cycles
 Optimization completed.
    -- Stationary point found.
 Normal termination of Gaussian 16 at Sun May 28 03:27:33 2023.

 ----------------------------------------------------------------------
 #N Geom=AllCheck Guess=TCheck SCRF=Check GenChk RB3LYP/6-31G(2df,p) Fr
 eq
 ----------------------------------------------------------------------

 Structure from the checkpoint file:  "CtN.chk"
 -------------------
 Title Card Required
 -------------------
 Charge =  0 Multiplicity = 1

                         Standard orientation:
 ---------------------------------------------------------------------
 Center     Atomic      Atomic             Coordinates (Angstroms)
 Number     Number       Type             X           Y           Z
 ---------------------------------------------------------------------
      1          6           0        0.000000    0.000000   -0.499715
      2          7           0        0.000000    0.000000    0.652158
      3          1           0        0.000000    0.000000   -1.566812
 ---------------------------------------------------------------------

 SCF Done:  E(RB3LYP) =  -93.4284886512     A.U. after    1 cycles

 The electronic state is 1-SG.
 Alpha  occ. eigenvalues --  -14.35690 -10.23959  -0.91964  -0.60736  -0.38043
 Alpha  occ. eigenvalues --   -0.36041  -0.36041
 Alpha virt. eigenvalues --    0.01908   0.01908   0.08216   0.24954   0.48410
 Alpha virt. eigenvalues --    0.48410   0.55089   0.63242   0.72182   0.72182
 Alpha virt. eigenvalues --    0.72596   0.73710   0.73710   0.95024   0.95024

 Mulliken charges:
               1
     1  C   -0.049715
     2  N   -0.188430
     3  H    0.238145
 Sum of Mulliken charges =   0.00000

 Dipole moment (field-independent basis, Debye):
    X=              0.0000    Y=              0.0000    Z=             -2.8943  Tot=              2.8943
 Quadrupole moment (field-independent basis, Debye-Ang):
   XX=            -11.3722   YY=            -11.3722   ZZ=             -9.5481
   XY=              0.0000   XZ=              0.0000   YZ=              0.0000

  Exact polarizability:   9.554   0.000   9.554  -0.000  -0.000  19.890
 Approx polarizability:  13.157  -0.000  13.157  -0.000  -0.000  38.441

                      1                      2                      3
                     PI                     PI                     SG
 Frequencies --    801.6871               801.6871              2197.6852
 Red. masses --      1.3431                 1.3431                 5.0871
 Frc consts  --      0.5086                 0.5086                14.4761
 IR Inten    --     29.1026                29.1026                 2.0497

                      4
                     SG
 Frequencies --   3485.3664
 Red. masses --      1.1914
 Frc consts  --      8.5272
 IR Inten    --     56.9906

 - Thermochemistry -
 -------------------
 Temperature   298.150 Kelvin.  Pressure   1.00000 Atm.
 Atom     1 has atomic number  6 and mass  12.00000

 Molecular mass:    27.01090 amu.
 Principal axes and moments of inertia in atomic units:
                           1         2         3
     Eigenvalues --     0.00000  40.48386  40.48386
           X            0.00000  -0.00000   1.00000
           Y            0.00000   1.00000   0.00000
           Z            1.00000   0.00000   0.00000
 This molecule is a prolate symmetric top.
 Rotational symmetry number  1.
 Rotational temperature (Kelvin)      2.13947
 Rotational constant (GHZ):          44.579279
 Zero-point vibrational energy      43582.5 (Joules/Mol)
                                   10.41647 (Kcal/Mol)
 Vibrational temperatures:   1153.45  1153.45  3161.98  5014.66
          (Kelvin)

 Zero-point correction=                           0.016600 (Hartree/Particle)
 Thermal correction to Energy=                    0.019116
 Thermal correction to Enthalpy=                  0.020060
 Thermal correction to Gibbs Free Energy=        -0.002759
 Sum of electronic and zero-point Energies=            -93.411889
 Sum of electronic and thermal Energies=               -93.409372
 Sum of electronic and thermal Enthalpies=             -93.408428
 Sum of electronic and thermal Free Energies=          -93.431247

                     E (Thermal)             CV                S
                      KCal/Mol        Cal/Mol-Kelvin    Cal/Mol-Kelvin
 Total                   11.996              6.270             48.027
 Electronic               0.000              0.000              0.000
 Translational            0.889              2.981             35.816
 Rotational               0.592              1.987             11.798
 Vibrational             10.514              1.302              0.412

 Optimization completed.
    -- Stationary point found.
 Normal termination of Gaussian 16 at Sun May 28 03:29:47 2023.
