 Gaussian 16, Revision A.03,
 Gaussian 16:  ES64L-G16RevA.03 25-Dec-2016

 -----------------------------
 # opt freq b3lyp/6-31g(2df,p)
 -----------------------------

 -------------------
 Title Card Required
 -------------------
 Symbolic Z-matrix:
 Charge =  0 Multiplicity = 1

 SCF Done:  E(RB3LYP) =  -533.630287969     A.U. after   12 cycles
 SCF Done:  E(RB3LYP) =  -533.632398351     A.U. after   10 cycles
 SCF Done:  E(RB3LYP) =  -533.632492165     A.U. after    9 cycles
 SCF Done:  E(RB3LYP) =  -533.632505204     A.U. after    7 cycles
 SCF Done:  E(RB3LYP) =  -533.632507246     A.U. after    7 cycles
 SCF Done:  E(RB3LYP) =  -533.632508560     A.U. after    7 cycles
 SCF Done:  E(RB3LYP) =  -533.632511887     A.U. after    8 cycles
 SCF Done:  E(RB3LYP) =  -533.632524433     A.U. after    8 cycles
 SCF Done:  E(RB3LYP) =  -533.603726008     A.U. after   11 cycles
 SCF Done:  E(RB3LYP) =  -533.632630653     A.U. after   10 cycles
 SCF Done:  E(RB3LYP) =  -533.633373864     A.U. after    9 cycles
 SCF Done:  E(RB3LYP) =  -533.632944208     A.U. after   10 cycles
 SCF Done:  E(RB3LYP) =  -533.633393058     A.U. after   11 cycles
 SCF Done:  E(RB3LYP) =  -533.633358926     A.U. after    9 cycles
 SCF Done:  E(RB3LYP) =  -533.633397779     A.U. after   10 cycles
 SCF Done:  E(RB3LYP) =  -533.633397177     A.U. after    8 cycles
 SCF Done:  E(RB3LYP) =  -533.633398135     A.U. after    8 cycles
 SCF Done:  E(RB3LYP) =  -533.633398142     A.U. after    6 cycles
 SCF Done:  E(RB3LYP) =  -533.633398155     A.U. after    6 cycles
 Optimization completed.
    -- Stationary point found.
 Normal termination of Gaussian 16 at Sun May 28 02:13:36 2023.

 ----------------------------------------------------------------------
 #N Geom=AllCheck Guess=TCheck SCRF=Check GenChk RB3LYP/6-31G(2df,p) Fr
 eq
 ----------------------------------------------------------------------

 Structure from the checkpoint file:  "FCqFrqFrC1CCCC1.chk"
 -------------------
 Title Card Required
 -------------------
 Charge =  0 Multiplicity = 1

                         Standard orientation:
 ---------------------------------------------------------------------
 Center     Atomic      Atomic             Coordinates (Angstroms)
 Number     Number       Type             X           Y           Z
 ---------------------------------------------------------------------
      1          9           0       -1.056384   -0.195431    1.341158
      2          6           0       -1.227107    0.012881    0.020575
      3          9           0       -2.001090   -0.986404   -0.436774
      4          9           0       -1.929354    1.151281   -0.111256
      5          6           0        0.094432    0.082063   -0.716445
      6          6           0        0.970834    1.266585   -0.210179
      7          6           0        2.365852    0.662065    0.043050
      8          6           0        2.063549   -0.782747    0.465455
      9          6           0        0.943910   -1.203207   -0.501284
     10          1           0       -0.167580    0.204058   -1.770519
     11          1           0        0.560856    1.656199    0.726215
     12          1           0        0.986011    2.095694   -0.920689
     13          1           0        2.936358    1.223604    0.787815
     14          1           0        2.952561    0.661849   -0.883891
     15          1           0        1.690220   -0.799146    1.495705
     16          1           0        2.934582   -1.441818    0.417572
     17          1           0        0.345405   -2.041333   -0.137569
     18          1           0        1.374213   -1.509963   -1.459825
 ---------------------------------------------------------------------

 SCF Done:  E(RB3LYP) =  -533.633398155     A.U. after    1 cycles

 The electronic state is 1-A.
 Alpha  occ. eigenvalues --  -24.71171 -24.71032 -24.71023 -10.40682 -10.20511
 Alpha  occ. eigenvalues --  -10.18969 -10.18966 -10.18525 -10.18358  -1.29685
 Alpha  occ. eigenvalues --   -1.20795  -1.20793  -0.85023  -0.75415  -0.71820
 Alpha  occ. eigenvalues --   -0.66998  -0.59804  -0.58758  -0.57586  -0.56457
 Alpha  occ. eigenvalues --   -0.52524  -0.49086  -0.46091  -0.45252  -0.44890
 Alpha  occ. eigenvalues --   -0.42621  -0.41571  -0.40762  -0.39731  -0.39211
 Alpha  occ. eigenvalues --   -0.35081  -0.34558  -0.34364  -0.34075  -0.33098
 Alpha  occ. eigenvalues --   -0.32950
 Alpha virt. eigenvalues --    0.07419   0.09428   0.12962   0.13718   0.14942
 Alpha virt. eigenvalues --    0.15729   0.16136   0.16773   0.17191   0.19283
 Alpha virt. eigenvalues --    0.20254   0.20522   0.21546   0.23394   0.24375

 Mulliken charges:
               1
     1  F   -0.090082
     2  C    0.270118
     3  F   -0.083574
     4  F   -0.084607
     5  C   -0.107193
     6  C   -0.234062
     7  C   -0.197884
     8  C   -0.196271
     9  C   -0.229927
    10  H    0.099863
    11  H    0.120887
    12  H    0.106834
    13  H    0.100116
    14  H    0.098761
    15  H    0.110420
    16  H    0.096821
    17  H    0.115963
    18  H    0.103818
 Sum of Mulliken charges =  -0.00000

 Dipole moment (field-independent basis, Debye):
    X=              2.0168    Y=              0.0698    Z=             -0.8135  Tot=              2.1758
 Quadrupole moment (field-independent basis, Debye-Ang):
   XX=            -54.0323   YY=            -51.9934   ZZ=            -51.0746
   XY=              0.0135   XZ=             -0.0714   YZ=             -0.0043

  Exact polarizability:  68.852  -0.029  63.994   1.544   0.072  58.317
 Approx polarizability:  88.845  -0.158  90.275   1.124   0.263  89.043

                      1                      2                      3
                      A                      A                      A
 Frequencies --     49.4139                77.0745               185.8334
 Red. masses --      2.7323                 5.1398                 4.1936
 Frc consts  --      0.0039                 0.0180                 0.0853
 IR Inten    --      0.4369                 0.0259                 0.5787

                      4                      5                      6
                      A                      A                      A
 Frequencies --    244.5503               270.5623               344.4190
 Red. masses --      3.9431                 1.7997                 6.4918
 Frc consts  --      0.1389                 0.0776                 0.4537
 IR Inten    --      0.8469                 0.0292                 3.1607

                      7                      8                      9
                      A                      A                      A
 Frequencies --    403.9390               512.6997               543.4887
 Red. masses --      5.7131                 4.5870                 2.4925
 Frc consts  --      0.5492                 0.7104                 0.4338
 IR Inten    --      2.1282                 0.8254                 0.8364

                     10                     11                     12
                      A                      A                      A
 Frequencies --    575.9957               639.8910               661.2005
 Red. masses --      6.6886                 3.6085                 2.7678
 Frc consts  --      1.3074                 0.8705                 0.7129
 IR Inten    --      0.0959                11.3400                 1.3421

                     13                     14                     15
                      A                      A                      A
 Frequencies --    779.2481               832.3904               875.1854
 Red. masses --      3.9670                 1.8577                 2.1144
 Frc consts  --      1.4193                 0.7584                 0.9542
 IR Inten    --      1.5466                 1.5759                 0.9622

                     16                     17                     18
                      A                      A                      A
 Frequencies --    912.7439               921.9128               940.0490
 Red. masses --      2.7724                 1.9328                 2.6119
 Frc consts  --      1.3608                 0.9679                 1.3599
 IR Inten    --      1.4837                 4.5318                 9.4345

                     19                     20                     21
                      A                      A                      A
 Frequencies --    951.6252              1032.4070              1047.2795
 Red. masses --      1.5468                 1.5520                 1.6934
 Frc consts  --      0.8253                 0.9746                 1.0943
 IR Inten    --      5.8786                 1.8649                 1.7861

                     22                     23                     24
                      A                      A                      A
 Frequencies --   1087.6042              1110.9899              1182.3221
 Red. masses --      2.2105                 2.5339                 1.7345
 Frc consts  --      1.5406                 1.8427                 1.4285
 IR Inten    --     41.4255                64.1164                51.9696

                     25                     26                     27
                      A                      A                      A
 Frequencies --   1195.8063              1201.5742              1230.5840
 Red. masses --      2.2384                 5.8445                 1.3980
 Frc consts  --      1.8859                 4.9716                 1.2474
 IR Inten    --    116.5396               164.4938                 2.0828

                     28                     29                     30
                      A                      A                      A
 Frequencies --   1256.5981              1286.6025              1301.3410
 Red. masses --      1.4343                 2.4766                 1.3080
 Frc consts  --      1.3344                 2.4155                 1.3051
 IR Inten    --     19.2375               100.6427                 6.8016

                     31                     32                     33
                      A                      A                      A
 Frequencies --   1319.7239              1342.9539              1348.1006
 Red. masses --      1.3014                 1.4120                 1.2736
 Frc consts  --      1.3354                 1.5004                 1.3638
 IR Inten    --      5.8079                12.8653                 0.4346

                     34                     35                     36
                      A                      A                      A
 Frequencies --   1360.7617              1401.9662              1488.3870
 Red. masses --      1.5059                 1.8899                 1.0900
 Frc consts  --      1.6428                 2.1886                 1.4227
 IR Inten    --      4.4696                50.2119                 1.8752

                     37                     38                     39
                      A                      A                      A
 Frequencies --   1492.4244              1494.0566              1513.6612
 Red. masses --      1.0904                 1.0823                 1.1085
 Frc consts  --      1.4309                 1.4234                 1.4963
 IR Inten    --      1.3933                 4.9220                 0.6436

                     40                     41                     42
                      A                      A                      A
 Frequencies --   3031.6802              3044.5943              3052.9361
 Red. masses --      1.0679                 1.0635                 1.0661
 Frc consts  --      5.7829                 5.8083                 5.8542
 IR Inten    --     25.0066                23.2329                17.3107

                     43                     44                     45
                      A                      A                      A
 Frequencies --   3063.2717              3077.9285              3092.1499
 Red. masses --      1.0628                 1.0850                 1.0933
 Frc consts  --      5.8760                 6.0560                 6.1588
 IR Inten    --     16.3179                22.6047                18.8645

                     46                     47                     48
                      A                      A                      A
 Frequencies --   3097.3911              3110.0192              3114.3416
 Red. masses --      1.1001                 1.1019                 1.1037
 Frc consts  --      6.2184                 6.2791                 6.3074
 IR Inten    --     34.8376                 6.1133                48.6676

 - Thermochemistry -
 -------------------
 Temperature   298.150 Kelvin.  Pressure   1.00000 Atm.
 Atom     1 has atomic number  9 and mass  18.99840

 Molecular mass:   138.06564 amu.
 Principal axes and moments of inertia in atomic units:
                           1         2         3
     Eigenvalues --   617.788521489.928981672.98713
           X            0.99999   0.00081   0.00399
           Y           -0.00081   1.00000  -0.00122
           Z           -0.00399   0.00121   0.99999
 This molecule is an asymmetric top.
 Rotational symmetry number  1.
 Warning -- assumption of classical behavior for rotation
           may cause significant error
 Rotational temperatures (Kelvin)      0.14020     0.05813     0.05177
 Rotational constants (GHZ):           2.92129     1.21129     1.07875
 Zero-point vibrational energy     383413.2 (Joules/Mol)
                                   91.63795 (Kcal/Mol)
 Warning -- explicit consideration of  10 degrees of freedom as
           vibrations may cause significant error
 Vibrational temperatures:     71.10   110.89   267.37   351.85   389.28
          (Kelvin)            495.54   581.18   737.66   781.96   828.73
                              920.66   951.32  1121.16  1197.62  1259.20
                             1313.23  1326.43  1352.52  1369.18  1485.40
                             1506.80  1564.82  1598.47  1701.10  1720.50
                             1728.80  1770.54  1807.96  1851.13  1872.34
                             1898.79  1932.21  1939.62  1957.83  2017.12
                             2141.46  2147.27  2149.61  2177.82  4361.91
                             4380.49  4392.49  4407.36  4428.45  4448.91
                             4456.45  4474.62  4480.84

 Zero-point correction=                           0.146034 (Hartree/Particle)
 Thermal correction to Energy=                    0.154229
 Thermal correction to Enthalpy=                  0.155173
 Thermal correction to Gibbs Free Energy=         0.112294
 Sum of electronic and zero-point Energies=           -533.487364
 Sum of electronic and thermal Energies=              -533.479170
 Sum of electronic and thermal Enthalpies=            -533.478225
 Sum of electronic and thermal Free Energies=         -533.521104

                     E (Thermal)             CV                S
                      KCal/Mol        Cal/Mol-Kelvin    Cal/Mol-Kelvin
 Total                   96.780             30.720             90.246
 Electronic               0.000              0.000              0.000
 Translational            0.889              2.981             40.679
 Rotational               0.889              2.981             28.823
 Vibrational             95.002             24.758             20.744
 Vibration     1          0.595              1.978              4.841
 Vibration     2          0.599              1.964              3.964
 Vibration     3          0.632              1.859              2.269
 Vibration     4          0.660              1.772              1.770
 Vibration     5          0.674              1.727              1.593
 Vibration     6          0.723              1.587              1.192
 Vibration     7          0.769              1.462              0.948
 Vibration     8          0.868              1.222              0.627
 Vibration     9          0.899              1.154              0.558
 Vibration    10          0.932              1.083              0.493

 Optimization completed.
    -- Stationary point found.
 Normal termination of Gaussian 16 at Sun May 28 02:45:32 2023.
