 Gaussian 16, Revision A.03,
 Gaussian 16:  ES64L-G16RevA.03 25-Dec-2016

 -----------------------------
 # opt freq b3lyp/6-31g(2df,p)
 -----------------------------

 -------------------
 Title Card Required
 -------------------
 Symbolic Z-matrix:
 Charge =  0 Multiplicity = 1

 SCF Done:  E(RB3LYP) =  -533.595495597     A.U. after   12 cycles
 SCF Done:  E(RB3LYP) =  -533.599356153     A.U. after   10 cycles
 SCF Done:  E(RB3LYP) =  -533.600814430     A.U. after   10 cycles
 SCF Done:  E(RB3LYP) =  -533.601109051     A.U. after   10 cycles
 SCF Done:  E(RB3LYP) =  -533.601301296     A.U. after   10 cycles
 SCF Done:  E(RB3LYP) =  -533.601357167     A.U. after    9 cycles
 SCF Done:  E(RB3LYP) =  -533.601401634     A.U. after   10 cycles
 SCF Done:  E(RB3LYP) =  -533.601428776     A.U. after    9 cycles
 SCF Done:  E(RB3LYP) =  -533.601427437     A.U. after    7 cycles
 SCF Done:  E(RB3LYP) =  -533.601438950     A.U. after   10 cycles
 SCF Done:  E(RB3LYP) =  -533.601440311     A.U. after    8 cycles
 SCF Done:  E(RB3LYP) =  -533.601440672     A.U. after    7 cycles
 SCF Done:  E(RB3LYP) =  -533.601440714     A.U. after    6 cycles
 SCF Done:  E(RB3LYP) =  -533.601440726     A.U. after    5 cycles
 Optimization completed.
    -- Stationary point found.
 Normal termination of Gaussian 16 at Sat May 27 23:43:18 2023.

 ----------------------------------------------------------------------
 #N Geom=AllCheck Guess=TCheck SCRF=Check GenChk RB3LYP/6-31G(2df,p) Fr
 eq
 ----------------------------------------------------------------------

 Structure from the checkpoint file:  "FCqFrqFrCC1CCC1.chk"
 -------------------
 Title Card Required
 -------------------
 Charge =  0 Multiplicity = 1

                         Standard orientation:
 ---------------------------------------------------------------------
 Center     Atomic      Atomic             Coordinates (Angstroms)
 Number     Number       Type             X           Y           Z
 ---------------------------------------------------------------------
      1          9           0        2.662416    0.000488   -0.375549
      2          6           0        1.385763    0.000008    0.045808
      3          9           0        1.234712   -1.082078    0.830856
      4          9           0        1.234282    1.081067    0.832155
      5          6           0        0.441033    0.000534   -1.140730
      6          6           0       -1.062096    0.000295   -0.854954
      7          6           0       -1.742626   -1.084669    0.029965
      8          6           0       -2.757268   -0.000248    0.483824
      9          6           0       -1.742868    1.084640    0.030545
     10          1           0        0.707395   -0.878909   -1.737792
     11          1           0        0.707290    0.880605   -1.736930
     12          1           0       -1.555258    0.000524   -1.833743
     13          1           0       -1.099830   -1.398881    0.853548
     14          1           0       -2.128098   -1.974760   -0.473870
     15          1           0       -3.060727   -0.000583    1.532703
     16          1           0       -3.656358   -0.000161   -0.139205
     17          1           0       -1.100147    1.398652    0.854260
     18          1           0       -2.128583    1.974861   -0.472879
 ---------------------------------------------------------------------

 SCF Done:  E(RB3LYP) =  -533.601440726     A.U. after    1 cycles

 The electronic state is 1-A.
 Alpha  occ. eigenvalues --  -24.71526 -24.71525 -24.71199 -10.41360 -10.20559
 Alpha  occ. eigenvalues --  -10.19943 -10.18161 -10.18065 -10.18063  -1.30090
 Alpha  occ. eigenvalues --   -1.21237  -1.21063  -0.85111  -0.78059  -0.67933
 Alpha  occ. eigenvalues --   -0.65827  -0.62940  -0.58138  -0.57847  -0.56688
 Alpha  occ. eigenvalues --   -0.51513  -0.47928  -0.46353  -0.45887  -0.45242
 Alpha  occ. eigenvalues --   -0.44185  -0.41486  -0.40831  -0.39744  -0.39712
 Alpha  occ. eigenvalues --   -0.37875  -0.36041  -0.34016  -0.31682  -0.30510
 Alpha  occ. eigenvalues --   -0.30493
 Alpha virt. eigenvalues --    0.07779   0.10620   0.11095   0.12398   0.13941
 Alpha virt. eigenvalues --    0.15205   0.16100   0.17590   0.17840   0.19150
 Alpha virt. eigenvalues --    0.20496   0.20592   0.21720   0.22648   0.24566

 Mulliken charges:
               1
     1  F   -0.077533
     2  C    0.278690
     3  F   -0.078890
     4  F   -0.078865
     5  C   -0.373199
     6  C    0.041476
     7  C   -0.235079
     8  C   -0.205439
     9  C   -0.235085
    10  H    0.129756
    11  H    0.129755
    12  H    0.080160
    13  H    0.117973
    14  H    0.093779
    15  H    0.099692
    16  H    0.101058
    17  H    0.117973
    18  H    0.093779
 Sum of Mulliken charges =  -0.00000

 Dipole moment (field-independent basis, Debye):
    X=             -1.3874    Y=              0.0007    Z=             -1.3974  Tot=              1.9692
 Quadrupole moment (field-independent basis, Debye-Ang):
   XX=            -54.6820   YY=            -52.4611   ZZ=            -50.3066
   XY=              0.0004   XZ=             -0.3567   YZ=             -0.0007

  Exact polarizability:  71.972   0.001  61.979  -3.100  -0.000  60.208
 Approx polarizability:  90.939   0.001  90.607  -2.161   0.000  88.497

                      1                      2                      3
                      A                      A                      A
 Frequencies --     22.3839               126.8960               134.3656
 Red. masses --      4.5447                 2.8040                 3.5844
 Frc consts  --      0.0013                 0.0266                 0.0381
 IR Inten    --      0.0015                 0.7454                 0.3381

                      4                      5                      6
                      A                      A                      A
 Frequencies --    194.9589               275.8431               305.5961
 Red. masses --      3.6009                 3.7343                 5.8242
 Frc consts  --      0.0806                 0.1674                 0.3205
 IR Inten    --      1.3186                 0.0003                 1.0581

                      7                      8                      9
                      A                      A                      A
 Frequencies --    369.1253               474.3804               523.4444
 Red. masses --      2.1908                 2.9187                10.2387
 Frc consts  --      0.1759                 0.3870                 1.6529
 IR Inten    --      0.4336                 0.9440                 1.2021

                     10                     11                     12
                      A                      A                      A
 Frequencies --    539.4525               623.9652               704.4890
 Red. masses --      8.2281                 2.7108                 4.1414
 Frc consts  --      1.4108                 0.6218                 1.2110
 IR Inten    --      0.6516                17.5233                 2.5515

                     13                     14                     15
                      A                      A                      A
 Frequencies --    750.6693               778.3844               827.5894
 Red. masses --      1.8226                 1.2631                 4.6663
 Frc consts  --      0.6051                 0.4509                 1.8830
 IR Inten    --      0.8360                 0.2253                 1.8726

                     16                     17                     18
                      A                      A                      A
 Frequencies --    873.0191               903.7240               933.0545
 Red. masses --      2.0409                 2.1480                 2.4723
 Frc consts  --      0.9165                 1.0336                 1.2681
 IR Inten    --      2.1396                 2.9726                 2.1999

                     19                     20                     21
                      A                      A                      A
 Frequencies --    968.1066               970.5898              1024.1515
 Red. masses --      1.2400                 2.8872                 1.8788
 Frc consts  --      0.6847                 1.6025                 1.1610
 IR Inten    --      1.0841                 0.8062                45.6712

                     22                     23                     24
                      A                      A                      A
 Frequencies --   1086.6958              1139.9222              1150.4728
 Red. masses --      1.6442                 3.5650                 1.9833
 Frc consts  --      1.1440                 2.7293                 1.5466
 IR Inten    --     55.9428                36.9903                75.1915

                     25                     26                     27
                      A                      A                      A
 Frequencies --   1183.0768              1211.4880              1249.8819
 Red. masses --      3.9987                 1.5280                 1.6421
 Frc consts  --      3.2976                 1.3213                 1.5114
 IR Inten    --    148.1110                20.1501                45.0100

                     28                     29                     30
                      A                      A                      A
 Frequencies --   1259.3295              1261.0284              1263.8512
 Red. masses --      1.2369                 2.1754                 1.2247
 Frc consts  --      1.1558                 2.0382                 1.1526
 IR Inten    --      0.2969                72.3364                 3.0898

                     31                     32                     33
                      A                      A                      A
 Frequencies --   1290.4176              1294.5989              1334.0522
 Red. masses --      1.4733                 1.8360                 1.4973
 Frc consts  --      1.4455                 1.8129                 1.5700
 IR Inten    --     27.6143                38.6442                34.2210

                     34                     35                     36
                      A                      A                      A
 Frequencies --   1359.0168              1422.3148              1468.3686
 Red. masses --      1.8349                 1.4976                 1.1413
 Frc consts  --      1.9967                 1.7850                 1.4498
 IR Inten    --     47.4543                13.7763                 9.7445

                     37                     38                     39
                      A                      A                      A
 Frequencies --   1486.1778              1489.9076              1516.9276
 Red. masses --      1.0891                 1.0859                 1.1401
 Frc consts  --      1.4173                 1.4202                 1.5457
 IR Inten    --      0.1911                 1.1582                 1.1246

                     40                     41                     42
                      A                      A                      A
 Frequencies --   3031.8033              3048.1329              3057.5353
 Red. masses --      1.0795                 1.0649                 1.0597
 Frc consts  --      5.8463                 5.8297                 5.8367
 IR Inten    --     13.8396                21.6654                32.2411

                     43                     44                     45
                      A                      A                      A
 Frequencies --   3066.6029              3072.0376              3088.4727
 Red. masses --      1.0613                 1.0641                 1.1025
 Frc consts  --      5.8805                 5.9166                 6.1958
 IR Inten    --     74.3429                11.5678                10.3917

                     46                     47                     48
                      A                      A                      A
 Frequencies --   3106.9780              3131.6728              3139.7137
 Red. masses --      1.1062                 1.1032                 1.1028
 Frc consts  --      6.2915                 6.3747                 6.4049
 IR Inten    --     12.0220                 3.1603                44.2607

 - Thermochemistry -
 -------------------
 Temperature   298.150 Kelvin.  Pressure   1.00000 Atm.
 Atom     1 has atomic number  9 and mass  18.99840

 Molecular mass:   138.06564 amu.
 Principal axes and moments of inertia in atomic units:
                           1         2         3
     Eigenvalues --   556.500201788.898871846.96896
           X            0.99994   0.00000  -0.01131
           Y           -0.00000   1.00000  -0.00011
           Z            0.01131   0.00011   0.99994
 This molecule is an asymmetric top.
 Rotational symmetry number  1.
 Warning -- assumption of classical behavior for rotation
           may cause significant error
 Rotational temperatures (Kelvin)      0.15564     0.04842     0.04690
 Rotational constants (GHZ):           3.24302     1.00886     0.97714
 Zero-point vibrational energy     380021.7 (Joules/Mol)
                                   90.82737 (Kcal/Mol)
 Warning -- explicit consideration of  10 degrees of freedom as
           vibrations may cause significant error
 Vibrational temperatures:     32.21   182.58   193.32   280.50   396.88
          (Kelvin)            439.68   531.09   682.53   753.12   776.15
                              897.75  1013.60  1080.05  1119.92  1190.72
                             1256.08  1300.26  1342.46  1392.89  1396.46
                             1473.53  1563.51  1640.09  1655.27  1702.18
                             1743.06  1798.30  1811.89  1814.34  1818.40
                             1856.62  1862.64  1919.40  1955.32  2046.39
                             2112.65  2138.28  2143.64  2182.52  4362.09
                             4385.58  4399.11  4412.16  4419.98  4443.62
                             4470.25  4505.78  4517.35

 Zero-point correction=                           0.144743 (Hartree/Particle)
 Thermal correction to Energy=                    0.153255
 Thermal correction to Enthalpy=                  0.154199
 Thermal correction to Gibbs Free Energy=         0.110153
 Sum of electronic and zero-point Energies=           -533.456698
 Sum of electronic and thermal Energies=              -533.448186
 Sum of electronic and thermal Enthalpies=            -533.447242
 Sum of electronic and thermal Free Energies=         -533.491288

                     E (Thermal)             CV                S
                      KCal/Mol        Cal/Mol-Kelvin    Cal/Mol-Kelvin
 Total                   96.169             31.557             92.703
 Electronic               0.000              0.000              0.000
 Translational            0.889              2.981             40.679
 Rotational               0.889              2.981             28.999
 Vibrational             94.391             25.596             23.025
 Vibration     1          0.593              1.985              6.411
 Vibration     2          0.611              1.926              2.993
 Vibration     3          0.613              1.919              2.883
 Vibration     4          0.636              1.847              2.180
 Vibration     5          0.677              1.718              1.559
 Vibration     6          0.696              1.663              1.386
 Vibration     7          0.741              1.536              1.083
 Vibration     8          0.831              1.307              0.725
 Vibration     9          0.878              1.198              0.602
 Vibration    10          0.895              1.163              0.566

 Optimization completed.
    -- Stationary point found.
 Normal termination of Gaussian 16 at Sun May 28 00:09:10 2023.
