 Gaussian 16, Revision A.03,
 Gaussian 16:  ES64L-G16RevA.03 25-Dec-2016

 -----------------------------
 # opt freq b3lyp/6-31g(2df,p)
 -----------------------------

 -------------------
 Title Card Required
 -------------------
 Symbolic Z-matrix:
 Charge =  0 Multiplicity = 1

 SCF Done:  E(RB3LYP) =  -675.287335652     A.U. after   10 cycles
 SCF Done:  E(RB3LYP) =  -675.294064248     A.U. after   10 cycles
 SCF Done:  E(RB3LYP) =  -675.294676354     A.U. after    8 cycles
 SCF Done:  E(RB3LYP) =  -675.294708694     A.U. after    7 cycles
 Optimization completed.
    -- Stationary point found.
 Normal termination of Gaussian 16 at Sat May 27 18:00:07 2023.

 ----------------------------------------------------------------------
 #N Geom=AllCheck Guess=TCheck SCRF=Check GenChk RB3LYP/6-31G(2df,p) Fr
 eq
 ----------------------------------------------------------------------

 Structure from the checkpoint file:  "FCqFrqFrCqFrqFrF.chk"
 -------------------
 Title Card Required
 -------------------
 Charge =  0 Multiplicity = 1

                         Standard orientation:
 ---------------------------------------------------------------------
 Center     Atomic      Atomic             Coordinates (Angstroms)
 Number     Number       Type             X           Y           Z
 ---------------------------------------------------------------------
      1          9           0        1.222261    0.958554   -0.804453
      2          6           0        0.774007   -0.000000    0.000003
      3          9           0        1.222270   -1.175955   -0.427888
      4          9           0        1.222238    0.217414    1.232366
      5          6           0       -0.774007   -0.000001   -0.000003
      6          9           0       -1.222269    1.175955    0.427888
      7          9           0       -1.222237   -0.217414   -1.232366
      8          9           0       -1.222262   -0.958553    0.804452
 ---------------------------------------------------------------------

 SCF Done:  E(RB3LYP) =  -675.294708694     A.U. after    1 cycles

 The electronic state is 1-A.
 Alpha  occ. eigenvalues --  -24.75178 -24.75178 -24.75178 -24.75178 -24.75177
 Alpha  occ. eigenvalues --  -24.75177 -10.45475 -10.45458  -1.35459  -1.33074
 Alpha  occ. eigenvalues --   -1.25860  -1.25860  -1.24801  -1.24801  -0.79423
 Alpha  occ. eigenvalues --   -0.69862  -0.64783  -0.63132  -0.63132  -0.60206
 Alpha  occ. eigenvalues --   -0.60206  -0.50551  -0.49399  -0.49399  -0.48281
 Alpha  occ. eigenvalues --   -0.48281  -0.46444  -0.46444  -0.44029  -0.44029
 Alpha  occ. eigenvalues --   -0.43406  -0.42705  -0.38487
 Alpha virt. eigenvalues --    0.09528   0.09528   0.18770   0.19456   0.21909
 Alpha virt. eigenvalues --    0.25454   0.25454   0.32932   0.35030   0.38949
 Alpha virt. eigenvalues --    0.38949   0.46991   0.46992   0.51328   0.58716

 Mulliken charges:
               1
     1  F   -0.051333
     2  C    0.153998
     3  F   -0.051332
     4  F   -0.051333
     5  C    0.153998
     6  F   -0.051333
     7  F   -0.051333
     8  F   -0.051333
 Sum of Mulliken charges =  -0.00000

 Dipole moment (field-independent basis, Debye):
    X=             -0.0000    Y=             -0.0000    Z=              0.0000  Tot=              0.0000
 Quadrupole moment (field-independent basis, Debye-Ang):
   XX=            -40.0140   YY=            -40.3383   ZZ=            -40.3383
   XY=             -0.0000   XZ=              0.0000   YZ=              0.0000

  Exact polarizability:  27.647  -0.000  27.422  -0.000   0.000  27.421
 Approx polarizability:  34.464  -0.000  40.282  -0.000  -0.000  40.281

                      1                      2                      3
                      A                      A                      A
 Frequencies --     59.5957               208.3326               208.4124
 Red. masses --     18.9984                18.6445                18.6446
 Frc consts  --      0.0398                 0.4768                 0.4771
 IR Inten    --      0.0000                 2.2430                 2.2416

                      4                      5                      6
                      A                      A                      A
 Frequencies --    344.0091               374.5903               374.6031
 Red. masses --     18.5760                18.7281                18.7282
 Frc consts  --      1.2952                 1.5483                 1.5484
 IR Inten    --      0.0000                 0.0000                 0.0000

                      7                      8                      9
                      A                      A                      A
 Frequencies --    520.3171               520.3340               615.4782
 Red. masses --     18.2491                18.2489                17.9744
 Frc consts  --      2.9109                 2.9111                 4.0117
 IR Inten    --      3.6479                 3.6508                 0.0000

                     10                     11                     12
                      A                      A                      A
 Frequencies --    615.4819               711.9664               810.8024
 Red. masses --     17.9743                17.0352                18.2119
 Frc consts  --      4.0117                 5.0876                 7.0540
 IR Inten    --      0.0000                35.4055                 0.0000

                     13                     14                     15
                      A                      A                      A
 Frequencies --   1127.4787              1244.1657              1244.2123
 Red. masses --     13.9027                12.8265                12.8265
 Frc consts  --     10.4128                11.6981                11.6989
 IR Inten    --    262.5226                 0.0000                 0.0000

                     16                     17                     18
                      A                      A                      A
 Frequencies --   1262.5149              1262.5519              1411.8531
 Red. masses --     13.3630                13.3629                12.5214
 Frc consts  --     12.5495                12.5501                14.7056
 IR Inten    --    477.1807               477.2157                 0.0000

 - Thermochemistry -
 -------------------
 Temperature   298.150 Kelvin.  Pressure   1.00000 Atm.
 Atom     1 has atomic number  9 and mass  18.99840

 Molecular mass:   137.99042 amu.
 Principal axes and moments of inertia in atomic units:
                           1         2         3
     Eigenvalues --   637.45673 978.19488 978.19545
           X            1.00000   0.00000   0.00000
           Y           -0.00000   1.00000   0.00000
           Z           -0.00000  -0.00000   1.00000
 This molecule is an asymmetric top.
 Rotational symmetry number  1.
 Warning -- assumption of classical behavior for rotation
           may cause significant error
 Rotational temperatures (Kelvin)      0.13587     0.08854     0.08854
 Rotational constants (GHZ):           2.83116     1.84497     1.84497
 Zero-point vibrational energy      77259.0 (Joules/Mol)
                                   18.46535 (Kcal/Mol)
 Warning -- explicit consideration of  10 degrees of freedom as
           vibrations may cause significant error
 Vibrational temperatures:     85.74   299.74   299.86   494.95   538.95
          (Kelvin)            538.97   748.62   748.64   885.54   885.54
                             1024.36  1166.56  1622.19  1790.08  1790.14
                             1816.48  1816.53  2031.34

 Zero-point correction=                           0.029426 (Hartree/Particle)
 Thermal correction to Energy=                    0.036196
 Thermal correction to Enthalpy=                  0.037140
 Thermal correction to Gibbs Free Energy=        -0.002412
 Sum of electronic and zero-point Energies=           -675.265282
 Sum of electronic and thermal Energies=              -675.258512
 Sum of electronic and thermal Enthalpies=            -675.257568
 Sum of electronic and thermal Free Energies=         -675.297120

                     E (Thermal)             CV                S
                      KCal/Mol        Cal/Mol-Kelvin    Cal/Mol-Kelvin
 Total                   22.713             23.124             83.244
 Electronic               0.000              0.000              0.000
 Translational            0.889              2.981             40.678
 Rotational               0.889              2.981             27.902
 Vibrational             20.936             17.162             14.664
 Vibration     1          0.597              1.974              4.471
 Vibration     2          0.642              1.828              2.058
 Vibration     3          0.642              1.828              2.058
 Vibration     4          0.723              1.587              1.193
 Vibration     5          0.746              1.524              1.061
 Vibration     6          0.746              1.524              1.061
 Vibration     7          0.875              1.205              0.609
 Vibration     8          0.875              1.205              0.609
 Vibration     9          0.975              0.999              0.424
 Vibration    10          0.975              0.999              0.424

 Optimization completed.
    -- Stationary point found.
 Normal termination of Gaussian 16 at Sat May 27 18:09:33 2023.
