 Gaussian 16, Revision A.03,
 Gaussian 16:  ES64L-G16RevA.03 25-Dec-2016

 -----------------------------
 # opt freq b3lyp/6-31g(2df,p)
 -----------------------------

 -------------------
 Title Card Required
 -------------------
 Symbolic Z-matrix:
 Charge =  0 Multiplicity = 1

 SCF Done:  E(RB3LYP) =  -494.280570735     A.U. after   12 cycles
 SCF Done:  E(RB3LYP) =  -494.282229222     A.U. after   10 cycles
 SCF Done:  E(RB3LYP) =  -494.282658017     A.U. after   10 cycles
 SCF Done:  E(RB3LYP) =  -494.282879652     A.U. after   10 cycles
 SCF Done:  E(RB3LYP) =  -494.282911701     A.U. after    9 cycles
 SCF Done:  E(RB3LYP) =  -494.282920987     A.U. after    8 cycles
 SCF Done:  E(RB3LYP) =  -494.282921750     A.U. after    7 cycles
 Optimization completed.
    -- Stationary point found.
 Normal termination of Gaussian 16 at Sun May 28 02:40:23 2023.

 ----------------------------------------------------------------------
 #N Geom=AllCheck Guess=TCheck SCRF=Check GenChk RB3LYP/6-31G(2df,p) Fr
 eq
 ----------------------------------------------------------------------

 Structure from the checkpoint file:  "FCqFrqFrCC1CC1.chk"
 -------------------
 Title Card Required
 -------------------
 Charge =  0 Multiplicity = 1

                         Standard orientation:
 ---------------------------------------------------------------------
 Center     Atomic      Atomic             Coordinates (Angstroms)
 Number     Number       Type             X           Y           Z
 ---------------------------------------------------------------------
      1          9           0       -2.217972   -0.552322   -0.644759
      2          6           0       -1.150959   -0.021810   -0.023887
      3          9           0       -1.046299    1.253439   -0.431006
      4          9           0       -1.424746    0.001761    1.291846
      5          6           0        0.105923   -0.818040   -0.318511
      6          6           0        1.315370   -0.301563    0.427480
      7          6           0        2.695417   -0.495297   -0.147549
      8          6           0        2.084350    0.882106   -0.102587
      9          1           0        0.266660   -0.777769   -1.400705
     10          1           0       -0.106309   -1.860564   -0.058190
     11          1           0        1.230509   -0.372500    1.507259
     12          1           0        2.779165   -0.983371   -1.113167
     13          1           0        3.504856   -0.725991    0.535690
     14          1           0        1.750613    1.322713   -1.035425
     15          1           0        2.475060    1.599210    0.610134
 ---------------------------------------------------------------------

 SCF Done:  E(RB3LYP) =  -494.282921750     A.U. after    1 cycles

 The electronic state is 1-A.
 Alpha  occ. eigenvalues --  -24.71189 -24.71136 -24.71122 -10.41077 -10.20821
 Alpha  occ. eigenvalues --  -10.20354 -10.19303 -10.19097  -1.29840  -1.20947
 Alpha  occ. eigenvalues --   -1.20914  -0.86978  -0.77703  -0.66531  -0.60748
 Alpha  occ. eigenvalues --   -0.59595  -0.57846  -0.57044  -0.53838  -0.49499
 Alpha  occ. eigenvalues --   -0.46946  -0.45217  -0.45034  -0.43150  -0.41155
 Alpha  occ. eigenvalues --   -0.39717  -0.39272  -0.37971  -0.36943  -0.36302
 Alpha  occ. eigenvalues --   -0.29920  -0.29276
 Alpha virt. eigenvalues --    0.08954   0.09539   0.11746   0.13525   0.13879
 Alpha virt. eigenvalues --    0.14664   0.15414   0.19247   0.20461   0.22026
 Alpha virt. eigenvalues --    0.22976   0.24089   0.24851   0.26353   0.30090

 Mulliken charges:
               1
     1  F   -0.081200
     2  C    0.287569
     3  F   -0.079762
     4  F   -0.087715
     5  C   -0.356565
     6  C    0.026083
     7  C   -0.284575
     8  C   -0.249092
     9  H    0.125205
    10  H    0.129815
    11  H    0.100375
    12  H    0.113808
    13  H    0.117658
    14  H    0.119836
    15  H    0.118560
 Sum of Mulliken charges =   0.00000

 Dipole moment (field-independent basis, Debye):
    X=              1.8625    Y=             -0.8690    Z=             -0.2549  Tot=              2.0710
 Quadrupole moment (field-independent basis, Debye-Ang):
   XX=            -47.3492   YY=            -45.1057   ZZ=            -44.3772
   XY=              0.1217   XZ=              0.6917   YZ=              0.4075

  Exact polarizability:  60.753   1.201  51.734   0.453   0.373  49.172
 Approx polarizability:  75.817   1.774  75.338  -0.184  -0.601  73.858

                      1                      2                      3
                      A                      A                      A
 Frequencies --     59.0168                95.2104               152.7188
 Red. masses --      3.4754                 4.2256                 3.9506
 Frc consts  --      0.0071                 0.0226                 0.0543
 IR Inten    --      0.0949                 0.4944                 1.1552

                      4                      5                      6
                      A                      A                      A
 Frequencies --    294.3866               323.7871               367.8557
 Red. masses --      5.1395                 3.3608                 3.5778
 Frc consts  --      0.2624                 0.2076                 0.2852
 IR Inten    --      0.3498                 0.3277                 1.0363

                      7                      8                      9
                      A                      A                      A
 Frequencies --    421.4331               537.0249               546.2768
 Red. masses --      2.5942                 7.4751                 9.3568
 Frc consts  --      0.2715                 1.2702                 1.6451
 IR Inten    --      2.8899                 0.7362                 2.8156

                     10                     11                     12
                      A                      A                      A
 Frequencies --    655.1398               772.2438               809.4908
 Red. masses --      6.2499                 1.0972                 1.6339
 Frc consts  --      1.5805                 0.3855                 0.6308
 IR Inten    --     14.3504                 0.0767                 1.7785

                     13                     14                     15
                      A                      A                      A
 Frequencies --    837.7872               854.6890               902.0939
 Red. masses --      2.7363                 2.7262                 1.7123
 Frc consts  --      1.1316                 1.1733                 0.8210
 IR Inten    --      2.9197                13.2948                 7.4680

                     16                     17                     18
                      A                      A                      A
 Frequencies --    952.0802               994.9143              1059.2034
 Red. masses --      2.8001                 2.3011                 1.3103
 Frc consts  --      1.4954                 1.3420                 0.8661
 IR Inten    --      1.9294                38.6460                 2.5721

                     19                     20                     21
                      A                      A                      A
 Frequencies --   1079.3536              1089.1904              1139.1604
 Red. masses --      1.4033                 1.9091                 1.1310
 Frc consts  --      0.9632                 1.3344                 0.8647
 IR Inten    --      3.5144                61.2135                 2.8488

                     22                     23                     24
                      A                      A                      A
 Frequencies --   1180.1091              1197.1363              1211.2655
 Red. masses --      5.4656                 1.4076                 2.0429
 Frc consts  --      4.4847                 1.1886                 1.7659
 IR Inten    --    219.8285                 1.6512                38.9245

                     25                     26                     27
                      A                      A                      A
 Frequencies --   1235.9386              1274.1918              1309.4594
 Red. masses --      1.9260                 3.7184                 1.8766
 Frc consts  --      1.7334                 3.5570                 1.8958
 IR Inten    --     12.7598               158.9880                79.8617

                     28                     29                     30
                      A                      A                      A
 Frequencies --   1365.7581              1425.3807              1468.3171
 Red. masses --      1.8376                 1.7323                 1.0961
 Frc consts  --      2.0195                 2.0736                 1.3923
 IR Inten    --     51.3530                14.5763                 6.5481

                     31                     32                     33
                      A                      A                      A
 Frequencies --   1475.5197              1509.8565              3051.1785
 Red. masses --      1.0983                 1.3884                 1.0600
 Frc consts  --      1.4089                 1.8648                 5.8141
 IR Inten    --      1.6005                 1.4483                13.2284

                     34                     35                     36
                      A                      A                      A
 Frequencies --   3096.8673              3132.5608              3141.3288
 Red. masses --      1.1028                 1.0528                 1.0568
 Frc consts  --      6.2313                 6.0871                 6.1444
 IR Inten    --      8.8103                16.9762                 8.9654

                     37                     38                     39
                      A                      A                      A
 Frequencies --   3159.2866              3212.2832              3228.7152
 Red. masses --      1.0891                 1.1176                 1.1153
 Frc consts  --      6.4048                 6.7945                 6.8504
 IR Inten    --      7.7362                 1.5450                16.1488

 - Thermochemistry -
 -------------------
 Temperature   298.150 Kelvin.  Pressure   1.00000 Atm.
 Atom     1 has atomic number  9 and mass  18.99840

 Molecular mass:   124.04999 amu.
 Principal axes and moments of inertia in atomic units:
                           1         2         3
     Eigenvalues --   433.091571470.811411517.58754
           X            1.00000   0.00104  -0.00066
           Y           -0.00097   0.99614   0.08778
           Z            0.00075  -0.08778   0.99614
 This molecule is an asymmetric top.
 Rotational symmetry number  1.
 Warning -- assumption of classical behavior for rotation
           may cause significant error
 Rotational temperatures (Kelvin)      0.19999     0.05889     0.05707
 Rotational constants (GHZ):           4.16711     1.22704     1.18922
 Zero-point vibrational energy     302764.1 (Joules/Mol)
                                   72.36236 (Kcal/Mol)
 Warning -- explicit consideration of   9 degrees of freedom as
           vibrations may cause significant error
 Vibrational temperatures:     84.91   136.99   219.73   423.56   465.86
          (Kelvin)            529.26   606.35   772.66   785.97   942.60
                             1111.09  1164.68  1205.39  1229.71  1297.91
                             1369.83  1431.46  1523.96  1552.95  1567.10
                             1639.00  1697.91  1722.41  1742.74  1778.24
                             1833.28  1884.02  1965.02  2050.80  2112.58
                             2122.94  2172.35  4389.97  4455.70  4507.06
                             4519.67  4545.51  4621.76  4645.40

 Zero-point correction=                           0.115317 (Hartree/Particle)
 Thermal correction to Energy=                    0.122973
 Thermal correction to Enthalpy=                  0.123918
 Thermal correction to Gibbs Free Energy=         0.082449
 Sum of electronic and zero-point Energies=           -494.167605
 Sum of electronic and thermal Energies=              -494.159948
 Sum of electronic and thermal Enthalpies=            -494.159004
 Sum of electronic and thermal Free Energies=         -494.200473

                     E (Thermal)             CV                S
                      KCal/Mol        Cal/Mol-Kelvin    Cal/Mol-Kelvin
 Total                   77.167             27.812             87.278
 Electronic               0.000              0.000              0.000
 Translational            0.889              2.981             40.360
 Rotational               0.889              2.981             28.360
 Vibrational             75.389             21.851             18.558
 Vibration     1          0.596              1.974              4.490
 Vibration     2          0.603              1.953              3.550
 Vibration     3          0.619              1.900              2.638
 Vibration     4          0.689              1.684              1.449
 Vibration     5          0.708              1.628              1.291
 Vibration     6          0.740              1.538              1.089
 Vibration     7          0.784              1.424              0.887
 Vibration     8          0.892              1.168              0.572
 Vibration     9          0.901              1.148              0.552

                           ! Non-Optimized Parameters !
 Normal termination of Gaussian 16 at Sun May 28 02:56:35 2023.
