 Gaussian 16, Revision A.03,
 Gaussian 16:  ES64L-G16RevA.03 25-Dec-2016

 -----------------------------
 # opt freq b3lyp/6-31g(2df,p)
 -----------------------------

 -------------------
 Title Card Required
 -------------------
 Symbolic Z-matrix:
 Charge =  0 Multiplicity = 1

 SCF Done:  E(RB3LYP) =  -532.305028745     A.U. after   12 cycles
 SCF Done:  E(RB3LYP) =  -532.322450759     A.U. after   10 cycles
 SCF Done:  E(RB3LYP) =  -532.327215015     A.U. after   11 cycles
 SCF Done:  E(RB3LYP) =  -532.328402155     A.U. after   10 cycles
 SCF Done:  E(RB3LYP) =  -532.328598529     A.U. after   10 cycles
 SCF Done:  E(RB3LYP) =  -532.328642305     A.U. after    8 cycles
 SCF Done:  E(RB3LYP) =  -532.328644539     A.U. after    7 cycles
 SCF Done:  E(RB3LYP) =  -532.328645067     A.U. after    7 cycles
 SCF Done:  E(RB3LYP) =  -532.328645435     A.U. after    6 cycles
 SCF Done:  E(RB3LYP) =  -532.328646017     A.U. after    8 cycles
 SCF Done:  E(RB3LYP) =  -532.328646813     A.U. after    8 cycles
 SCF Done:  E(RB3LYP) =  -532.328647859     A.U. after    8 cycles
 SCF Done:  E(RB3LYP) =  -532.328648836     A.U. after    8 cycles
 SCF Done:  E(RB3LYP) =  -532.328649650     A.U. after    8 cycles
 SCF Done:  E(RB3LYP) =  -532.328650043     A.U. after    7 cycles
 SCF Done:  E(RB3LYP) =  -532.328650077     A.U. after    6 cycles
 Optimization completed.
    -- Stationary point found.
 Normal termination of Gaussian 16 at Sat May 27 20:26:05 2023.

 ----------------------------------------------------------------------
 #N Geom=AllCheck Guess=TCheck SCRF=Check GenChk RB3LYP/6-31G(2df,p) Fr
 eq
 ----------------------------------------------------------------------

 Structure from the checkpoint file:  "FCqFrqFrC1C2CC1C2.chk"
 -------------------
 Title Card Required
 -------------------
 Charge =  0 Multiplicity = 1

                         Standard orientation:
 ---------------------------------------------------------------------
 Center     Atomic      Atomic             Coordinates (Angstroms)
 Number     Number       Type             X           Y           Z
 ---------------------------------------------------------------------
      1          9           0        1.332391    1.280265   -0.002688
      2          6           0        1.192881   -0.054936   -0.000020
      3          9           0        1.848812   -0.515136   -1.081596
      4          9           0        1.847185   -0.510755    1.084398
      5          6           0       -0.228198   -0.579310   -0.000117
      6          6           0       -1.347314   -0.040658    0.942707
      7          6           0       -2.344546   -0.781152   -0.000125
      8          6           0       -1.347393   -0.040349   -0.942807
      9          6           0       -1.514326    1.191469    0.000196
     10          1           0       -0.125908   -1.669319   -0.000238
     11          1           0       -1.336944   -0.051639    2.032543
     12          1           0       -3.370479   -0.406755   -0.000048
     13          1           0       -2.311333   -1.873866   -0.000285
     14          1           0       -1.337081   -0.050865   -2.032644
     15          1           0       -2.507534    1.647622    0.000319
     16          1           0       -0.732850    1.945073    0.000320
 ---------------------------------------------------------------------

 SCF Done:  E(RB3LYP) =  -532.328650077     A.U. after    1 cycles

 The electronic state is 1-A.
 Alpha  occ. eigenvalues --  -24.71658 -24.71048 -24.71048 -10.41181 -10.21724
 Alpha  occ. eigenvalues --  -10.21721 -10.21452 -10.20010 -10.19348  -1.29962
 Alpha  occ. eigenvalues --   -1.21181  -1.20810  -0.92731  -0.74716  -0.67606
 Alpha  occ. eigenvalues --   -0.65409  -0.63950  -0.58898  -0.57409  -0.57238
 Alpha  occ. eigenvalues --   -0.51008  -0.50313  -0.47145  -0.45438  -0.44780
 Alpha  occ. eigenvalues --   -0.42319  -0.41602  -0.40808  -0.39342  -0.36228
 Alpha  occ. eigenvalues --   -0.34440  -0.33736  -0.33278  -0.31985  -0.31724
 Alpha virt. eigenvalues --    0.09772   0.09904   0.12811   0.13421   0.13715
 Alpha virt. eigenvalues --    0.13773   0.14047   0.15089   0.16959   0.18514
 Alpha virt. eigenvalues --    0.20704   0.21312   0.21871   0.24817   0.24821

 Mulliken charges:
               1
     1  F   -0.072343
     2  C    0.249921
     3  F   -0.081624
     4  F   -0.081638
     5  C   -0.114482
     6  C   -0.062808
     7  C   -0.223093
     8  C   -0.062836
     9  C   -0.228339
    10  H    0.097069
    11  H    0.085776
    12  H    0.099574
    13  H    0.096020
    14  H    0.085778
    15  H    0.093417
    16  H    0.119609
 Sum of Mulliken charges =  -0.00000

 Dipole moment (field-independent basis, Debye):
    X=             -2.1683    Y=             -0.3832    Z=             -0.0002  Tot=              2.2019
 Quadrupole moment (field-independent basis, Debye-Ang):
   XX=            -52.0141   YY=            -50.1399   ZZ=            -50.7648
   XY=              0.1488   XZ=              0.0001   YZ=             -0.0003

  Exact polarizability:  68.159  -0.783  60.601   0.000   0.001  56.385
 Approx polarizability:  90.564  -1.776  90.899   0.000  -0.000  87.714

                      1                      2                      3
                      A                      A                      A
 Frequencies --     14.5776               154.3029               238.1034
 Red. masses --      4.8535                 5.1641                 6.7306
 Frc consts  --      0.0006                 0.0724                 0.2248
 IR Inten    --      0.0144                 0.3800                 0.7909

                      4                      5                      6
                      A                      A                      A
 Frequencies --    331.2588               373.0667               407.3851
 Red. masses --      6.6106                 4.4562                 6.4449
 Frc consts  --      0.4274                 0.3654                 0.6302
 IR Inten    --      2.7856                 2.8936                 0.9869

                      7                      8                      9
                      A                      A                      A
 Frequencies --    540.4709               567.7156               590.6610
 Red. masses --      9.7819                10.7253                 1.9667
 Frc consts  --      1.6835                 2.0367                 0.4043
 IR Inten    --      1.3356                 0.0001                 0.2086

                     10                     11                     12
                      A                      A                      A
 Frequencies --    724.3092               772.9811               810.8640
 Red. masses --      8.6023                 2.9022                 2.8146
 Frc consts  --      2.6590                 1.0217                 1.0903
 IR Inten    --     14.2860                 0.0353                 0.3930

                     13                     14                     15
                      A                      A                      A
 Frequencies --    858.8928               897.3566               898.5405
 Red. masses --      3.6135                 2.0350                 2.1614
 Frc consts  --      1.5706                 0.9655                 1.0281
 IR Inten    --     10.0274                 0.3672                 5.0262

                     16                     17                     18
                      A                      A                      A
 Frequencies --    910.3336               975.5198              1015.5773
 Red. masses --      2.7894                 3.0918                 1.0237
 Frc consts  --      1.3619                 1.7335                 0.6221
 IR Inten    --      0.0546                16.9923                 0.4356

                     19                     20                     21
                      A                      A                      A
 Frequencies --   1034.5602              1037.4201              1087.7479
 Red. masses --      1.0282                 1.5894                 1.4217
 Frc consts  --      0.6484                 1.0078                 0.9911
 IR Inten    --      0.7213                14.6066                 4.4468

                     22                     23                     24
                      A                      A                      A
 Frequencies --   1116.9602              1130.7033              1144.5955
 Red. masses --      2.0992                 2.7585                 1.3468
 Frc consts  --      1.5431                 2.0779                 1.0396
 IR Inten    --      1.0284                20.0192                 4.3007

                     25                     26                     27
                      A                      A                      A
 Frequencies --   1162.5009              1175.3922              1197.3724
 Red. masses --      4.1347                 4.1082                 1.6081
 Frc consts  --      3.2922                 3.3440                 1.3584
 IR Inten    --    186.8934               144.0503                30.5907

                     28                     29                     30
                      A                      A                      A
 Frequencies --   1216.6873              1246.6905              1250.0784
 Red. masses --      1.4438                 1.8126                 1.6995
 Frc consts  --      1.2592                 1.6599                 1.5647
 IR Inten    --      4.0405                13.8054                52.7438

                     31                     32                     33
                      A                      A                      A
 Frequencies --   1270.1762              1306.8301              1435.5037
 Red. masses --      1.8028                 4.8725                 1.5671
 Frc consts  --      1.7137                 4.9027                 1.9027
 IR Inten    --      1.0577               176.1411                32.0892

                     34                     35                     36
                      A                      A                      A
 Frequencies --   1506.8518              1549.9752              3055.6416
 Red. masses --      1.0987                 1.1411                 1.0565
 Frc consts  --      1.4699                 1.6153                 5.8119
 IR Inten    --      1.0475                 1.7195                35.3875

                     37                     38                     39
                      A                      A                      A
 Frequencies --   3062.8089              3074.3309              3114.2040
 Red. masses --      1.0810                 1.0656                 1.0899
 Frc consts  --      5.9749                 5.9342                 6.2277
 IR Inten    --     34.4821                34.1230                86.9854

                     40                     41                     42
                      A                      A                      A
 Frequencies --   3117.8353              3125.8192              3187.8164
 Red. masses --      1.0949                 1.1106                 1.0990
 Frc consts  --      6.2712                 6.3937                 6.5801
 IR Inten    --      2.2385                38.5493                11.2504

 - Thermochemistry -
 -------------------
 Temperature   298.150 Kelvin.  Pressure   1.00000 Atm.
 Atom     1 has atomic number  9 and mass  18.99840

 Molecular mass:   136.04999 amu.
 Principal axes and moments of inertia in atomic units:
                           1         2         3
     Eigenvalues --   560.244931491.846541521.97048
           X            1.00000   0.00293   0.00000
           Y           -0.00293   1.00000   0.00008
           Z           -0.00000  -0.00008   1.00000
 This molecule is an asymmetric top.
 Rotational symmetry number  1.
 Warning -- assumption of classical behavior for rotation
           may cause significant error
 Rotational temperatures (Kelvin)      0.15460     0.05806     0.05691
 Rotational constants (GHZ):           3.22134     1.20974     1.18579
 Zero-point vibrational energy     321140.0 (Joules/Mol)
                                   76.75431 (Kcal/Mol)
 Warning -- explicit consideration of   9 degrees of freedom as
           vibrations may cause significant error
 Vibrational temperatures:     20.97   222.01   342.58   476.61   536.76
          (Kelvin)            586.14   777.62   816.82   849.83  1042.12
                             1112.15  1166.65  1235.76  1291.10  1292.80
                             1309.77  1403.56  1461.19  1488.50  1492.62
                             1565.03  1607.06  1626.83  1646.82  1672.58
                             1691.13  1722.75  1750.54  1793.71  1798.58
                             1827.50  1880.24  2065.37  2168.02  2230.07
                             4396.39  4406.70  4423.28  4480.64  4485.87
                             4497.36  4586.56

 Zero-point correction=                           0.122316 (Hartree/Particle)
 Thermal correction to Energy=                    0.129617
 Thermal correction to Enthalpy=                  0.130562
 Thermal correction to Gibbs Free Energy=         0.088765
 Sum of electronic and zero-point Energies=           -532.206334
 Sum of electronic and thermal Energies=              -532.199033
 Sum of electronic and thermal Enthalpies=            -532.198088
 Sum of electronic and thermal Free Energies=         -532.239885

                     E (Thermal)             CV                S
                      KCal/Mol        Cal/Mol-Kelvin    Cal/Mol-Kelvin
 Total                   81.336             27.941             87.969
 Electronic               0.000              0.000              0.000
 Translational            0.889              2.981             40.636
 Rotational               0.889              2.981             28.633
 Vibrational             79.559             21.979             18.701
 Vibration     1          0.593              1.986              7.262
 Vibration     2          0.620              1.898              2.618
 Vibration     3          0.656              1.782              1.817
 Vibration     4          0.714              1.613              1.254
 Vibration     5          0.744              1.527              1.067
 Vibration     6          0.772              1.454              0.936
 Vibration     7          0.896              1.161              0.564
 Vibration     8          0.924              1.101              0.509
 Vibration     9          0.948              1.052              0.466

                           ! Non-Optimized Parameters !
 Normal termination of Gaussian 16 at Sat May 27 20:51:31 2023.
