 Gaussian 16, Revision A.03,
 Gaussian 16:  ES64L-G16RevA.03 25-Dec-2016

 -----------------------------
 # opt freq b3lyp/6-31g(2df,p)
 -----------------------------

 -------------------
 Title Card Required
 -------------------
 Symbolic Z-matrix:
 Charge =  0 Multiplicity = 1

 SCF Done:  E(RB3LYP) =  -437.500008913     A.U. after    9 cycles
 SCF Done:  E(RB3LYP) =  -437.502005183     A.U. after    9 cycles
 Optimization completed.
    -- Stationary point found.
 Normal termination of Gaussian 16 at Sat May 27 17:41:22 2023.

 ----------------------------------------------------------------------
 #N Geom=AllCheck Guess=TCheck SCRF=Check GenChk RB3LYP/6-31G(2df,p) Fr
 eq
 ----------------------------------------------------------------------

 Structure from the checkpoint file:  "FCqFrqFrF.chk"
 -------------------
 Title Card Required
 -------------------
 Charge =  0 Multiplicity = 1

                         Standard orientation:
 ---------------------------------------------------------------------
 Center     Atomic      Atomic             Coordinates (Angstroms)
 Number     Number       Type             X           Y           Z
 ---------------------------------------------------------------------
      1          9           0        1.151639   -0.586189   -0.278098
      2          6           0        0.000003   -0.000004   -0.000001
      3          9           0        0.215245    1.048385    0.775736
      4          9           0       -0.576533    0.393434   -1.122507
      5          9           0       -0.790352   -0.855627    0.624869
 ---------------------------------------------------------------------

 SCF Done:  E(RB3LYP) =  -437.502005183     A.U. after    1 cycles

 The electronic state is 1-A.
 Alpha  occ. eigenvalues --  -24.74991 -24.74990 -24.74990 -24.74990 -10.50720
 Alpha  occ. eigenvalues --   -1.37110  -1.25583  -1.25583  -1.25583  -0.72554
 Alpha  occ. eigenvalues --   -0.63374  -0.63374  -0.63374  -0.49794  -0.49794
 Alpha  occ. eigenvalues --   -0.47182  -0.47182  -0.47182  -0.42866  -0.42865
 Alpha  occ. eigenvalues --   -0.42865
 Alpha virt. eigenvalues --    0.19286   0.19569   0.19569   0.19569   0.34437
 Alpha virt. eigenvalues --    0.38073   0.38073   0.38073   0.67433   0.67433
 Alpha virt. eigenvalues --    0.67433   0.77073   0.77073   0.86099   0.87295

 Mulliken charges:
               1
     1  F   -0.064255
     2  C    0.257010
     3  F   -0.064254
     4  F   -0.064249
     5  F   -0.064252
 Sum of Mulliken charges =  -0.00000

 Dipole moment (field-independent basis, Debye):
    X=              0.0000    Y=             -0.0000    Z=             -0.0000  Tot=              0.0000
 Quadrupole moment (field-independent basis, Debye-Ang):
   XX=            -24.5897   YY=            -24.5897   ZZ=            -24.5897
   XY=             -0.0000   XZ=             -0.0000   YZ=             -0.0000

  Exact polarizability:  15.936  -0.000  15.936  -0.000   0.000  15.936
 Approx polarizability:  21.628   0.000  21.628  -0.000  -0.000  21.628

                      1                      2                      3
                      A                      A                      A
 Frequencies --    429.9279               429.9341               625.6547
 Red. masses --     18.9984                18.9984                18.1803
 Frc consts  --      2.0690                 2.0691                 4.1930
 IR Inten    --      0.0000                 0.0000                 3.9324

                      4                      5                      6
                      A                      A                      A
 Frequencies --    625.6653               625.6769               913.5472
 Red. masses --     18.1802                18.1803                18.9984
 Frc consts  --      4.1931                 4.1933                 9.3418
 IR Inten    --      3.9339                 3.9325                 0.0000

                      7                      8                      9
                      A                      A                      A
 Frequencies --   1289.2898              1289.3229              1289.3337
 Red. masses --     13.0245                13.0245                13.0245
 Frc consts  --     12.7560                12.7566                12.7568
 IR Inten    --    354.4976               354.4873               354.4942

 - Thermochemistry -
 -------------------
 Temperature   298.150 Kelvin.  Pressure   1.00000 Atm.
 Atom     1 has atomic number  9 and mass  18.99840

 Molecular mass:    87.99361 amu.
 Principal axes and moments of inertia in atomic units:
                           1         2         3
     Eigenvalues --   316.10168 316.10380 316.10570
           X            1.00000  -0.00000  -0.00000
           Y            0.00000   1.00000   0.00000
           Z            0.00000  -0.00000   1.00000
 This molecule is an asymmetric top.
 Rotational symmetry number  1.
 Rotational temperatures (Kelvin)      0.27401     0.27400     0.27400
 Rotational constants (GHZ):           5.70937     5.70933     5.70930
 Zero-point vibrational energy      44969.7 (Joules/Mol)
                                   10.74802 (Kcal/Mol)
 Warning -- explicit consideration of   2 degrees of freedom as
           vibrations may cause significant error
 Vibrational temperatures:    618.57   618.58   900.18   900.19   900.21
          (Kelvin)           1314.39  1855.00  1855.05  1855.06

 Zero-point correction=                           0.017128 (Hartree/Particle)
 Thermal correction to Energy=                    0.021049
 Thermal correction to Enthalpy=                  0.021993
 Thermal correction to Gibbs Free Energy=        -0.010057
 Sum of electronic and zero-point Energies=           -437.484877
 Sum of electronic and thermal Energies=              -437.480956
 Sum of electronic and thermal Enthalpies=            -437.480012
 Sum of electronic and thermal Free Energies=         -437.512063

                     E (Thermal)             CV                S
                      KCal/Mol        Cal/Mol-Kelvin    Cal/Mol-Kelvin
 Total                   13.208             12.647             67.456
 Electronic               0.000              0.000              0.000
 Translational            0.889              2.981             39.337
 Rotational               0.889              2.981             24.961
 Vibrational             11.431              6.686              3.158
 Vibration     1          0.791              1.405              0.859
 Vibration     2          0.791              1.405              0.859

 Optimization completed.
    -- Stationary point found.
 Normal termination of Gaussian 16 at Sat May 27 17:44:33 2023.
