 Gaussian 16, Revision A.03,
 Gaussian 16:  ES64L-G16RevA.03 25-Dec-2016

 -----------------------------
 # opt freq b3lyp/6-31g(2df,p)
 -----------------------------

 -------------------
 Title Card Required
 -------------------
 Symbolic Z-matrix:
 Charge =  0 Multiplicity = 1

 SCF Done:  E(RB3LYP) =  -494.280605967     A.U. after   12 cycles
 SCF Done:  E(RB3LYP) =  -494.284890571     A.U. after   10 cycles
 SCF Done:  E(RB3LYP) =  -494.285787132     A.U. after   10 cycles
 SCF Done:  E(RB3LYP) =  -494.286540746     A.U. after   10 cycles
 SCF Done:  E(RB3LYP) =  -494.286806867     A.U. after   10 cycles
 SCF Done:  E(RB3LYP) =  -494.286861814     A.U. after    9 cycles
 SCF Done:  E(RB3LYP) =  -494.286867023     A.U. after    7 cycles
 SCF Done:  E(RB3LYP) =  -494.286868216     A.U. after    7 cycles
 Optimization completed.
    -- Stationary point found.
 Normal termination of Gaussian 16 at Sat May 27 21:53:10 2023.

 ----------------------------------------------------------------------
 #N Geom=AllCheck Guess=TCheck SCRF=Check GenChk RB3LYP/6-31G(2df,p) Fr
 eq
 ----------------------------------------------------------------------

 Structure from the checkpoint file:  "FCqFrqFrC1CCC1.chk"
 -------------------
 Title Card Required
 -------------------
 Charge =  0 Multiplicity = 1

                         Standard orientation:
 ---------------------------------------------------------------------
 Center     Atomic      Atomic             Coordinates (Angstroms)
 Number     Number       Type             X           Y           Z
 ---------------------------------------------------------------------
      1          9           0       -1.037144   -0.000155    1.325054
      2          6           0       -1.005080   -0.000020   -0.020514
      3          9           0       -1.685653   -1.083513   -0.431811
      4          9           0       -1.686229    1.083453   -0.431712
      5          6           0        0.405521    0.000160   -0.550044
      6          6           0        1.377683    1.088170   -0.017317
      7          6           0        2.483812    0.000005    0.061390
      8          6           0        1.377517   -1.088024   -0.017471
      9          1           0        0.345926    0.000227   -1.641128
     10          1           0        1.074153    1.433307    0.973936
     11          1           0        1.553357    1.955409   -0.655840
     12          1           0        3.125520   -0.000042    0.944419
     13          1           0        3.118263   -0.000029   -0.829026
     14          1           0        1.074058   -1.433472    0.973683
     15          1           0        1.553234   -1.955201   -0.656101
 ---------------------------------------------------------------------

 SCF Done:  E(RB3LYP) =  -494.286868216     A.U. after    1 cycles

 The electronic state is 1-A.
 Alpha  occ. eigenvalues --  -24.71263 -24.71037 -24.71031 -10.40797 -10.20762
 Alpha  occ. eigenvalues --  -10.19463 -10.19463 -10.19225  -1.29724  -1.20882
 Alpha  occ. eigenvalues --   -1.20808  -0.86152  -0.73389  -0.67224  -0.64998
 Alpha  occ. eigenvalues --   -0.58492  -0.57334  -0.56977  -0.53668  -0.49216
 Alpha  occ. eigenvalues --   -0.45292  -0.44947  -0.44118  -0.41755  -0.41399
 Alpha  occ. eigenvalues --   -0.39876  -0.39053  -0.38137  -0.36357  -0.33191
 Alpha  occ. eigenvalues --   -0.32077  -0.31856
 Alpha virt. eigenvalues --    0.08086   0.09571   0.10523   0.12499   0.14835
 Alpha virt. eigenvalues --    0.16200   0.17216   0.19093   0.19665   0.20527
 Alpha virt. eigenvalues --    0.22638   0.23889   0.23924   0.27921   0.31886

 Mulliken charges:
               1
     1  F   -0.087140
     2  C    0.270437
     3  F   -0.083953
     4  F   -0.084208
     5  C   -0.106115
     6  C   -0.236108
     7  C   -0.215564
     8  C   -0.236097
     9  H    0.101172
    10  H    0.121278
    11  H    0.109849
    12  H    0.106772
    13  H    0.108543
    14  H    0.121285
    15  H    0.109847
 Sum of Mulliken charges =  -0.00000

 Dipole moment (field-independent basis, Debye):
    X=              2.1273    Y=             -0.0005    Z=             -0.5600  Tot=              2.1998
 Quadrupole moment (field-independent basis, Debye-Ang):
   XX=            -46.6822   YY=            -45.7241   ZZ=            -44.4703
   XY=              0.0014   XZ=             -0.3476   YZ=             -0.0000

  Exact polarizability:  58.412  -0.001  53.324   0.822  -0.000  49.222
 Approx polarizability:  73.950  -0.002  75.469   1.217  -0.001  74.412

                      1                      2                      3
                      A                      A                      A
 Frequencies --     69.4511               114.9070               178.4846
 Red. masses --      4.1370                 2.4063                 4.1846
 Frc consts  --      0.0118                 0.0187                 0.0785
 IR Inten    --      0.0693                 0.4148                 0.4989

                      4                      5                      6
                      A                      A                      A
 Frequencies --    261.2998               358.2449               408.1419
 Red. masses --      3.2303                 7.1296                 6.0755
 Frc consts  --      0.1299                 0.5391                 0.5963
 IR Inten    --      0.7419                 4.9739                 2.0790

                      7                      8                      9
                      A                      A                      A
 Frequencies --    503.7963               571.1881               605.4412
 Red. masses --      5.8163                 9.7871                 3.0097
 Frc consts  --      0.8698                 1.8813                 0.6500
 IR Inten    --      1.5287                 0.0584                 0.0086

                     10                     11                     12
                      A                      A                      A
 Frequencies --    687.0492               769.2605               781.2613
 Red. masses --      2.7813                 2.2634                 1.2109
 Frc consts  --      0.7735                 0.7892                 0.4355
 IR Inten    --     13.8303                 1.3327                 0.0048

                     13                     14                     15
                      A                      A                      A
 Frequencies --    878.6774               933.2175               936.1351
 Red. masses --      2.7465                 2.3480                 2.2659
 Frc consts  --      1.2494                 1.2048                 1.1700
 IR Inten    --      5.8157                 6.6079                 3.1903

                     16                     17                     18
                      A                      A                      A
 Frequencies --    967.2197              1018.8066              1057.7449
 Red. masses --      1.3721                 2.5141                 2.2221
 Frc consts  --      0.7563                 1.5375                 1.4648
 IR Inten    --      0.3740                18.5768                 7.9560

                     19                     20                     21
                      A                      A                      A
 Frequencies --   1106.3517              1177.2625              1191.9542
 Red. masses --      3.3517                 3.6347                 3.7441
 Frc consts  --      2.4171                 2.9680                 3.1341
 IR Inten    --     54.0247               138.3407               159.8426

                     22                     23                     24
                      A                      A                      A
 Frequencies --   1214.7213              1248.8922              1255.6713
 Red. masses --      1.6244                 1.3264                 1.2846
 Frc consts  --      1.4122                 1.2189                 1.1933
 IR Inten    --     45.1266                 8.0284                 2.3211

                     25                     26                     27
                      A                      A                      A
 Frequencies --   1263.7429              1278.7375              1285.2746
 Red. masses --      1.1914                 2.0883                 1.4407
 Frc consts  --      1.1211                 2.0119                 1.4022
 IR Inten    --      0.3650                75.6217                 1.3848

                     28                     29                     30
                      A                      A                      A
 Frequencies --   1300.1119              1404.1941              1477.5418
 Red. masses --      2.1266                 2.1594                 1.0878
 Frc consts  --      2.1179                 2.5086                 1.3992
 IR Inten    --     92.3278                65.9552                 1.5704

                     31                     32                     33
                      A                      A                      A
 Frequencies --   1486.9072              1510.0868              3064.4461
 Red. masses --      1.0836                 1.1459                 1.0589
 Frc consts  --      1.4116                 1.5395                 5.8588
 IR Inten    --      1.1844                 0.2332                35.0149

                     34                     35                     36
                      A                      A                      A
 Frequencies --   3071.7683              3075.3615              3085.2107
 Red. masses --      1.0570                 1.0619                 1.0858
 Frc consts  --      5.8763                 5.9171                 6.0893
 IR Inten    --     47.7768                 0.4113                 9.1611

                     37                     38                     39
                      A                      A                      A
 Frequencies --   3112.2563              3127.7392              3136.6937
 Red. masses --      1.1061                 1.1086                 1.1073
 Frc consts  --      6.3126                 6.3897                 6.4191
 IR Inten    --      7.2362                11.9695                45.1685

 - Thermochemistry -
 -------------------
 Temperature   298.150 Kelvin.  Pressure   1.00000 Atm.
 Atom     1 has atomic number  9 and mass  18.99840

 Molecular mass:   124.04999 amu.
 Principal axes and moments of inertia in atomic units:
                           1         2         3
     Eigenvalues --   485.900661207.595821327.83593
           X            1.00000   0.00000  -0.00171
           Y           -0.00000   1.00000   0.00001
           Z            0.00171  -0.00001   1.00000
 This molecule is an asymmetric top.
 Rotational symmetry number  1.
 Warning -- assumption of classical behavior for rotation
           may cause significant error
 Rotational temperatures (Kelvin)      0.17825     0.07172     0.06523
 Rotational constants (GHZ):           3.71422     1.49449     1.35916
 Zero-point vibrational energy     304899.7 (Joules/Mol)
                                   72.87278 (Kcal/Mol)
 Warning -- explicit consideration of   9 degrees of freedom as
           vibrations may cause significant error
 Vibrational temperatures:     99.92   165.33   256.80   375.95   515.43
          (Kelvin)            587.23   724.85   821.81   871.09   988.51
                             1106.79  1124.06  1264.22  1342.69  1346.89
                             1391.61  1465.84  1521.86  1591.79  1693.82
                             1714.96  1747.71  1796.88  1806.63  1818.24
                             1839.82  1849.22  1870.57  2020.32  2125.85
                             2139.33  2172.68  4409.05  4419.59  4424.76
                             4438.93  4477.84  4500.12  4513.00

 Zero-point correction=                           0.116130 (Hartree/Particle)
 Thermal correction to Energy=                    0.123461
 Thermal correction to Enthalpy=                  0.124405
 Thermal correction to Gibbs Free Energy=         0.083839
 Sum of electronic and zero-point Energies=           -494.170738
 Sum of electronic and thermal Energies=              -494.163407
 Sum of electronic and thermal Enthalpies=            -494.162463
 Sum of electronic and thermal Free Energies=         -494.203029

                     E (Thermal)             CV                S
                      KCal/Mol        Cal/Mol-Kelvin    Cal/Mol-Kelvin
 Total                   77.473             26.826             85.378
 Electronic               0.000              0.000              0.000
 Translational            0.889              2.981             40.360
 Rotational               0.889              2.981             28.146
 Vibrational             75.695             20.864             16.872
 Vibration     1          0.598              1.969              4.169
 Vibration     2          0.608              1.937              3.184
 Vibration     3          0.629              1.869              2.344
 Vibration     4          0.669              1.744              1.653
 Vibration     5          0.733              1.558              1.130
 Vibration     6          0.773              1.453              0.933
 Vibration     7          0.859              1.242              0.649
 Vibration     8          0.927              1.094              0.502
 Vibration     9          0.964              1.020              0.440

                           ! Non-Optimized Parameters !
 Normal termination of Gaussian 16 at Sat May 27 22:10:21 2023.
