 Gaussian 16, Revision A.03,
 Gaussian 16:  ES64L-G16RevA.03 25-Dec-2016

 -----------------------------
 # opt freq b3lyp/6-31g(2df,p)
 -----------------------------

 -------------------
 Title Card Required
 -------------------
 Symbolic Z-matrix:
 Charge =  0 Multiplicity = 1

 SCF Done:  E(RB3LYP) =  -533.591983045     A.U. after   12 cycles
 SCF Done:  E(RB3LYP) =  -533.594159504     A.U. after   10 cycles
 SCF Done:  E(RB3LYP) =  -533.594703126     A.U. after    9 cycles
 SCF Done:  E(RB3LYP) =  -533.595371254     A.U. after   10 cycles
 SCF Done:  E(RB3LYP) =  -533.596002824     A.U. after   12 cycles
 SCF Done:  E(RB3LYP) =  -533.596553552     A.U. after   10 cycles
 SCF Done:  E(RB3LYP) =  -533.596749796     A.U. after    9 cycles
 SCF Done:  E(RB3LYP) =  -533.596825362     A.U. after    9 cycles
 SCF Done:  E(RB3LYP) =  -533.596838696     A.U. after    8 cycles
 SCF Done:  E(RB3LYP) =  -533.596844761     A.U. after    8 cycles
 SCF Done:  E(RB3LYP) =  -533.596846898     A.U. after    8 cycles
 SCF Done:  E(RB3LYP) =  -533.596847293     A.U. after    7 cycles
 SCF Done:  E(RB3LYP) =  -533.596847367     A.U. after    6 cycles
 SCF Done:  E(RB3LYP) =  -533.596847397     A.U. after    5 cycles
 Optimization completed.
    -- Stationary point found.
 Normal termination of Gaussian 16 at Sun May 28 10:38:11 2023.

 ----------------------------------------------------------------------
 #N Geom=AllCheck Guess=TCheck SCRF=Check GenChk RB3LYP/6-31G(2df,p) Fr
 eq
 ----------------------------------------------------------------------

 Structure from the checkpoint file:  "FCqFrqFrCCC1CC1.chk"
 -------------------
 Title Card Required
 -------------------
 Charge =  0 Multiplicity = 1

                         Standard orientation:
 ---------------------------------------------------------------------
 Center     Atomic      Atomic             Coordinates (Angstroms)
 Number     Number       Type             X           Y           Z
 ---------------------------------------------------------------------
      1          9           0       -2.367641    1.227407    0.000190
      2          6           0       -1.637400    0.100295    0.000010
      3          9           0       -2.001659   -0.610522    1.081258
      4          9           0       -2.001479   -0.610116   -1.081570
      5          6           0       -0.155077    0.409061    0.000228
      6          6           0        0.701727   -0.861305   -0.000069
      7          6           0        2.206715   -0.647858   -0.000146
      8          6           0        2.895268    0.460766   -0.755506
      9          6           0        2.895532    0.460315    0.755599
     10          1           0        0.037788    1.024943    0.883479
     11          1           0        0.037922    1.025507   -0.882600
     12          1           0        0.429301   -1.460047   -0.877400
     13          1           0        0.429357   -1.460386    0.877049
     14          1           0        2.744369   -1.592640   -0.000532
     15          1           0        2.289850    1.208517   -1.256285
     16          1           0        3.818531    0.229254   -1.274907
     17          1           0        2.290325    1.207791    1.257044
     18          1           0        3.818975    0.228501    1.274550
 ---------------------------------------------------------------------

 SCF Done:  E(RB3LYP) =  -533.596847397     A.U. after    1 cycles

 The electronic state is 1-A.
 Alpha  occ. eigenvalues --  -24.71292 -24.71292 -24.71230 -10.41267 -10.20675
 Alpha  occ. eigenvalues --  -10.19846 -10.19696 -10.18870 -10.18846  -1.29973
 Alpha  occ. eigenvalues --   -1.21059  -1.21049  -0.86399  -0.80155  -0.70614
 Alpha  occ. eigenvalues --   -0.64849  -0.60431  -0.58302  -0.57974  -0.56222
 Alpha  occ. eigenvalues --   -0.53724  -0.48830  -0.47319  -0.46575  -0.45312
 Alpha  occ. eigenvalues --   -0.44766  -0.41450  -0.40961  -0.39415  -0.38930
 Alpha  occ. eigenvalues --   -0.37872  -0.37208  -0.36383  -0.34388  -0.29437
 Alpha  occ. eigenvalues --   -0.28431
 Alpha virt. eigenvalues --    0.08644   0.08985   0.10737   0.12709   0.13444
 Alpha virt. eigenvalues --    0.14468   0.15568   0.15942   0.17321   0.17568
 Alpha virt. eigenvalues --    0.22033   0.22111   0.23445   0.24121   0.25652

 Mulliken charges:
               1
     1  F   -0.081946
     2  C    0.289590
     3  F   -0.085877
     4  F   -0.085876
     5  C   -0.340510
     6  C   -0.215761
     7  C    0.005744
     8  C   -0.261717
     9  C   -0.261720
    10  H    0.131274
    11  H    0.131270
    12  H    0.117318
    13  H    0.117312
    14  H    0.088985
    15  H    0.112477
    16  H    0.113480
    17  H    0.112473
    18  H    0.113483
 Sum of Mulliken charges =  -0.00000

 Dipole moment (field-independent basis, Debye):
    X=              2.1336    Y=              0.1240    Z=              0.0001  Tot=              2.1372
 Quadrupole moment (field-independent basis, Debye-Ang):
   XX=            -54.8013   YY=            -51.8412   ZZ=            -52.2971
   XY=             -1.0532   XZ=             -0.0004   YZ=              0.0004

  Exact polarizability:  74.075   0.616  60.195  -0.000   0.000  59.522
 Approx polarizability:  89.066   0.788  90.013   0.000  -0.001  90.737

                      1                      2                      3
                      A                      A                      A
 Frequencies --     29.4954                86.8188               123.6729
 Red. masses --      4.0334                 3.5644                 2.0989
 Frc consts  --      0.0021                 0.0158                 0.0189
 IR Inten    --      0.4788                 0.3555                 0.0426

                      4                      5                      6
                      A                      A                      A
 Frequencies --    135.5859               203.1305               334.0139
 Red. masses --      5.0003                 5.9626                 2.2505
 Frc consts  --      0.0542                 0.1450                 0.1479
 IR Inten    --      0.9728                 0.5635                 0.1065

                      7                      8                      9
                      A                      A                      A
 Frequencies --    365.7794               381.6621               468.7619
 Red. masses --      3.1689                 6.9198                 3.0448
 Frc consts  --      0.2498                 0.5939                 0.3942
 IR Inten    --      0.8273                 3.1531                 0.7729

                     10                     11                     12
                      A                      A                      A
 Frequencies --    539.0975               556.0446               660.5398
 Red. masses --      7.4628                 9.5484                 5.9721
 Frc consts  --      1.2779                 1.7394                 1.5352
 IR Inten    --      0.5829                 1.9030                18.4431

                     13                     14                     15
                      A                      A                      A
 Frequencies --    758.8623               767.6785               797.7046
 Red. masses --      1.1807                 1.6845                 1.4816
 Frc consts  --      0.4006                 0.5849                 0.5555
 IR Inten    --      0.4490                 4.2637                 3.9118

                     16                     17                     18
                      A                      A                      A
 Frequencies --    834.8898               853.8022               884.7849
 Red. masses --      1.2302                 5.6134                 3.0632
 Frc consts  --      0.5052                 2.4110                 1.4129
 IR Inten    --      6.8851                 9.0691                 1.4624

                     19                     20                     21
                      A                      A                      A
 Frequencies --    989.3058              1023.3333              1030.7578
 Red. masses --      2.7356                 1.9202                 2.1511
 Frc consts  --      1.5775                 1.1848                 1.3466
 IR Inten    --      4.2018                 0.3874                64.1211

                     22                     23                     24
                      A                      A                      A
 Frequencies --   1057.6271              1080.3701              1136.2889
 Red. masses --      1.4205                 1.3833                 1.1471
 Frc consts  --      0.9362                 0.9513                 0.8726
 IR Inten    --      9.6338                 4.4903                 7.5513

                     25                     26                     27
                      A                      A                      A
 Frequencies --   1138.4293              1166.5643              1179.8283
 Red. masses --      1.8362                 1.7541                 4.0941
 Frc consts  --      1.4021                 1.4064                 3.3577
 IR Inten    --     16.7214                34.6554               165.7524

                     28                     29                     30
                      A                      A                      A
 Frequencies --   1198.4247              1245.7367              1272.4279
 Red. masses --      1.4053                 1.7608                 1.6948
 Frc consts  --      1.1891                 1.6099                 1.6167
 IR Inten    --      0.0098                 0.5083                84.3350

                     31                     32                     33
                      A                      A                      A
 Frequencies --   1273.4913              1333.3254              1345.9937
 Red. masses --      3.4748                 2.2842                 1.2389
 Frc consts  --      3.3203                 2.3925                 1.3224
 IR Inten    --    165.3953                95.6834                29.1627

                     34                     35                     36
                      A                      A                      A
 Frequencies --   1404.4947              1419.7865              1472.8058
 Red. masses --      1.8080                 1.4733                 1.0862
 Frc consts  --      2.1013                 1.7498                 1.3881
 IR Inten    --     11.8496                27.7687                 3.0090

                     37                     38                     39
                      A                      A                      A
 Frequencies --   1478.8383              1498.8717              1514.4605
 Red. masses --      1.1004                 1.1178                 1.3619
 Frc consts  --      1.4179                 1.4796                 1.8404
 IR Inten    --      8.0559                 6.7976                 0.9391

                     40                     41                     42
                      A                      A                      A
 Frequencies --   3030.8541              3063.9188              3064.7904
 Red. masses --      1.0587                 1.0588                 1.1021
 Frc consts  --      5.7298                 5.8565                 6.0992
 IR Inten    --     20.5450                11.9059                11.3833

                     43                     44                     45
                      A                      A                      A
 Frequencies --   3113.1242              3134.0427              3134.1211
 Red. masses --      1.1029                 1.0517                 1.0778
 Frc consts  --      6.2976                 6.0863                 6.2379
 IR Inten    --     10.2744                25.3073                20.9838

                     46                     47                     48
                      A                      A                      A
 Frequencies --   3139.5707              3208.2099              3223.1639
 Red. masses --      1.0686                 1.1170                 1.1147
 Frc consts  --      6.2061                 6.7740                 6.8231
 IR Inten    --      3.4519                 0.0973                26.2397

 - Thermochemistry -
 -------------------
 Temperature   298.150 Kelvin.  Pressure   1.00000 Atm.
 Atom     1 has atomic number  9 and mass  18.99840

 Molecular mass:   138.06564 amu.
 Principal axes and moments of inertia in atomic units:
                           1         2         3
     Eigenvalues --   513.019352388.472782417.84516
           X            0.99999   0.00428   0.00000
           Y           -0.00428   0.99999   0.00005
           Z            0.00000  -0.00005   1.00000
 This molecule is an asymmetric top.
 Rotational symmetry number  1.
 Warning -- assumption of classical behavior for rotation
           may cause significant error
 Rotational temperatures (Kelvin)      0.16883     0.03626     0.03582
 Rotational constants (GHZ):           3.51788     0.75560     0.74643
 Zero-point vibrational energy     377752.5 (Joules/Mol)
                                   90.28501 (Kcal/Mol)
 Warning -- explicit consideration of  11 degrees of freedom as
           vibrations may cause significant error
 Vibrational temperatures:     42.44   124.91   177.94   195.08   292.26
          (Kelvin)            480.57   526.27   549.13   674.44   775.64
                              800.02   950.37  1091.83  1104.52  1147.72
                             1201.22  1228.43  1273.01  1423.39  1472.35
                             1483.03  1521.69  1554.41  1634.87  1637.95
                             1678.43  1697.51  1724.27  1792.34  1830.74
                             1832.27  1918.36  1936.58  2020.75  2042.76
                             2119.04  2127.72  2156.54  2178.97  4360.72
                             4408.30  4409.55  4479.09  4509.19  4509.30
                             4517.14  4615.90  4637.41

 Zero-point correction=                           0.143878 (Hartree/Particle)
 Thermal correction to Energy=                    0.152876
 Thermal correction to Enthalpy=                  0.153820
 Thermal correction to Gibbs Free Energy=         0.108501
 Sum of electronic and zero-point Energies=           -533.452969
 Sum of electronic and thermal Energies=              -533.443972
 Sum of electronic and thermal Enthalpies=            -533.443027
 Sum of electronic and thermal Free Energies=         -533.488347

                     E (Thermal)             CV                S
                      KCal/Mol        Cal/Mol-Kelvin    Cal/Mol-Kelvin
 Total                   95.931             32.652             95.382
 Electronic               0.000              0.000              0.000
 Translational            0.889              2.981             40.679
 Rotational               0.889              2.981             29.473
 Vibrational             94.154             26.690             25.230
 Vibration     1          0.593              1.984              5.863
 Vibration     2          0.601              1.958              3.731
 Vibration     3          0.610              1.929              3.042
 Vibration     4          0.613              1.918              2.865
 Vibration     5          0.639              1.835              2.105
 Vibration     6          0.716              1.608              1.241
 Vibration     7          0.739              1.543              1.097
 Vibration     8          0.751              1.509              1.033
 Vibration     9          0.826              1.319              0.741
 Vibration    10          0.894              1.164              0.567
 Vibration    11          0.912              1.126              0.532

 Optimization completed.
    -- Stationary point found.
 Normal termination of Gaussian 16 at Sun May 28 11:02:30 2023.
