 Gaussian 16, Revision A.03,
 Gaussian 16:  ES64L-G16RevA.03 25-Dec-2016

 -----------------------------
 # opt freq b3lyp/6-31g(2df,p)
 -----------------------------

 -------------------
 Title Card Required
 -------------------
 Symbolic Z-matrix:
 Charge =  0 Multiplicity = 1

 SCF Done:  E(RB3LYP) =  -714.621189754     A.U. after   12 cycles
 SCF Done:  E(RB3LYP) =  -714.624476469     A.U. after   11 cycles
 SCF Done:  E(RB3LYP) =  -714.626119447     A.U. after   10 cycles
 SCF Done:  E(RB3LYP) =  -714.626180784     A.U. after    8 cycles
 SCF Done:  E(RB3LYP) =  -714.626186881     A.U. after    7 cycles
 Optimization completed.
    -- Stationary point found.
 Normal termination of Gaussian 16 at Sat May 27 18:08:23 2023.

 ----------------------------------------------------------------------
 #N Geom=AllCheck Guess=TCheck SCRF=Check GenChk RB3LYP/6-31G(2df,p) Fr
 eq
 ----------------------------------------------------------------------

 Structure from the checkpoint file:  "FCqFrqFrCCqFrqFrF.chk"
 -------------------
 Title Card Required
 -------------------
 Charge =  0 Multiplicity = 1

                         Standard orientation:
 ---------------------------------------------------------------------
 Center     Atomic      Atomic             Coordinates (Angstroms)
 Number     Number       Type             X           Y           Z
 ---------------------------------------------------------------------
      1          9           0       -2.338398   -0.000000    0.897925
      2          6           0       -1.280107   -0.000000    0.073363
      3          9           0       -1.372723   -1.080832   -0.707752
      4          9           0       -1.372723    1.080832   -0.707752
      5          6           0        0.000000    0.000001    0.895563
      6          6           0        1.280106   -0.000000    0.073364
      7          9           0        1.372723   -1.080833   -0.707752
      8          9           0        1.372723    1.080832   -0.707753
      9          9           0        2.338398    0.000000    0.897924
     10          1           0        0.000000   -0.887248    1.531351
     11          1           0       -0.000000    0.887252    1.531349
 ---------------------------------------------------------------------

 SCF Done:  E(RB3LYP) =  -714.626186881     A.U. after    1 cycles

 The electronic state is 1-A.
 Alpha  occ. eigenvalues --  -24.73215 -24.73215 -24.73215 -24.73215 -24.73212
 Alpha  occ. eigenvalues --  -24.73212 -10.43879 -10.43879 -10.24052  -1.32408
 Alpha  occ. eigenvalues --   -1.31909  -1.23392  -1.23237  -1.23008  -1.22969
 Alpha  occ. eigenvalues --   -0.83486  -0.71509  -0.67362  -0.60870  -0.60694
 Alpha  occ. eigenvalues --   -0.60392  -0.59364  -0.57936  -0.53359  -0.48677
 Alpha  occ. eigenvalues --   -0.47355  -0.46939  -0.46643  -0.46424  -0.44077
 Alpha  occ. eigenvalues --   -0.42621  -0.42595  -0.41955  -0.41390  -0.40941
 Alpha  occ. eigenvalues --   -0.40155  -0.38047
 Alpha virt. eigenvalues --    0.08147   0.09846   0.13688   0.13787   0.15090
 Alpha virt. eigenvalues --    0.21175   0.21717   0.21984   0.23101   0.26712
 Alpha virt. eigenvalues --    0.35218   0.36950   0.39589   0.41733   0.42118

 Mulliken charges:
               1
     1  F   -0.073271
     2  C    0.280711
     3  F   -0.068799
     4  F   -0.068799
     5  C   -0.470912
     6  C    0.280712
     7  F   -0.068799
     8  F   -0.068799
     9  F   -0.073271
    10  H    0.165613
    11  H    0.165613
 Sum of Mulliken charges =  -0.00000

 Dipole moment (field-independent basis, Debye):
    X=             -0.0000    Y=             -0.0000    Z=              1.7301  Tot=              1.7301
 Quadrupole moment (field-independent basis, Debye-Ang):
   XX=            -50.7606   YY=            -46.5980   ZZ=            -45.1211
   XY=              0.0000   XZ=             -0.0000   YZ=              0.0000

  Exact polarizability:  40.377  -0.000  36.029   0.000  -0.000  36.293
 Approx polarizability:  50.553  -0.000  54.045   0.000  -0.000  52.168

                      1                      2                      3
                      A                      A                      A
 Frequencies --     27.9644               119.6266               160.4300
 Red. masses --     18.8264                 7.0134                15.6091
 Frc consts  --      0.0087                 0.0591                 0.2367
 IR Inten    --      0.0000                 2.0247                 1.3565

                      4                      5                      6
                      A                      A                      A
 Frequencies --    294.1063               296.1643               328.3370
 Red. masses --     14.4470                16.6371                17.9836
 Frc consts  --      0.7363                 0.8598                 1.1423
 IR Inten    --      0.0000                 0.1529                 0.2434

                      7                      8                      9
                      A                      A                      A
 Frequencies --    394.3547               520.1014               532.4979
 Red. masses --      2.3070                13.7807                 5.8808
 Frc consts  --      0.2114                 2.1963                 0.9825
 IR Inten    --      1.1502                 5.4880                 2.5276

                     10                     11                     12
                      A                      A                      A
 Frequencies --    538.8345               544.5861               647.7752
 Red. masses --     17.7061                13.3697                 6.5102
 Frc consts  --      3.0289                 2.3362                 1.6095
 IR Inten    --      2.0221                 0.0000                32.1897

                     13                     14                     15
                      A                      A                      A
 Frequencies --    712.8218               854.0584               881.3955
 Red. masses --     11.9502                 8.2766                 4.5196
 Frc consts  --      3.5776                 3.5570                 2.0687
 IR Inten    --     16.4682                13.5425                 8.1175

                     16                     17                     18
                      A                      A                      A
 Frequencies --    931.8320              1069.9754              1131.3070
 Red. masses --      2.3659                 2.0527                 5.1004
 Frc consts  --      1.2104                 1.3846                 3.8461
 IR Inten    --     35.3447                 0.0000               217.6699

                     19                     20                     21
                      A                      A                      A
 Frequencies --   1235.9995              1243.5029              1268.2964
 Red. masses --     11.6891                 4.0995                 7.9164
 Frc consts  --     10.5213                 3.7349                 7.5027
 IR Inten    --    172.2807                84.0956               423.0516

                     22                     23                     24
                      A                      A                      A
 Frequencies --   1319.0449              1330.8377              1409.5010
 Red. masses --     11.0026                 1.8397                 2.2934
 Frc consts  --     11.2788                 1.9198                 2.6845
 IR Inten    --    241.9967                 0.0000               179.6654

                     25                     26                     27
                      A                      A                      A
 Frequencies --   1458.4711              3095.6705              3152.4495
 Red. masses --      1.1003                 1.0602                 1.1054
 Frc consts  --      1.3789                 5.9860                 6.4725
 IR Inten    --      5.4925                 0.0361                 0.5317

 - Thermochemistry -
 -------------------
 Temperature   298.150 Kelvin.  Pressure   1.00000 Atm.
 Atom     1 has atomic number  9 and mass  18.99840

 Molecular mass:   152.00607 amu.
 Principal axes and moments of inertia in atomic units:
                           1         2         3
     Eigenvalues --   619.349191690.440991716.47148
           X            1.00000  -0.00000   0.00000
           Y            0.00000   1.00000   0.00000
           Z           -0.00000  -0.00000   1.00000
 This molecule is an asymmetric top.
 Rotational symmetry number  1.
 Warning -- assumption of classical behavior for rotation
           may cause significant error
 Rotational temperatures (Kelvin)      0.13985     0.05124     0.05046
 Rotational constants (GHZ):           2.91393     1.06762     1.05143
 Zero-point vibrational energy     152523.5 (Joules/Mol)
                                   36.45400 (Kcal/Mol)
 Warning -- explicit consideration of  11 degrees of freedom as
           vibrations may cause significant error
 Vibrational temperatures:     40.23   172.12   230.82   423.15   426.11
          (Kelvin)            472.40   567.39   748.31   766.15   775.26
                              783.54   932.00  1025.59  1228.80  1268.13
                             1340.70  1539.46  1627.70  1778.33  1789.12
                             1824.80  1897.81  1914.78  2027.96  2098.41
                             4453.98  4535.67

 Zero-point correction=                           0.058093 (Hartree/Particle)
 Thermal correction to Energy=                    0.066023
 Thermal correction to Enthalpy=                  0.066967
 Thermal correction to Gibbs Free Energy=         0.024000
 Sum of electronic and zero-point Energies=           -714.568094
 Sum of electronic and thermal Energies=              -714.560164
 Sum of electronic and thermal Enthalpies=            -714.559220
 Sum of electronic and thermal Free Energies=         -714.602187

                     E (Thermal)             CV                S
                      KCal/Mol        Cal/Mol-Kelvin    Cal/Mol-Kelvin
 Total                   41.430             27.770             90.431
 Electronic               0.000              0.000              0.000
 Translational            0.889              2.981             40.966
 Rotational               0.889              2.981             28.976
 Vibrational             39.652             21.809             20.489
 Vibration     1          0.593              1.984              5.969
 Vibration     2          0.609              1.933              3.106
 Vibration     3          0.622              1.891              2.545
 Vibration     4          0.689              1.685              1.450
 Vibration     5          0.690              1.681              1.438
 Vibration     6          0.712              1.619              1.268
 Vibration     7          0.761              1.482              0.984
 Vibration     8          0.875              1.205              0.610
 Vibration     9          0.887              1.178              0.582
 Vibration    10          0.894              1.164              0.568
 Vibration    11          0.900              1.152              0.556

 Optimization completed.
    -- Stationary point found.
 Normal termination of Gaussian 16 at Sat May 27 18:22:12 2023.
