 Gaussian 16, Revision A.03,
 Gaussian 16:  ES64L-G16RevA.03 25-Dec-2016

 -----------------------------
 # opt freq b3lyp/6-31g(2df,p)
 -----------------------------

 -------------------
 Title Card Required
 -------------------
 Symbolic Z-matrix:
 Charge =  0 Multiplicity = 1

 SCF Done:  E(RB3LYP) =  -569.489342413     A.U. after   12 cycles
 SCF Done:  E(RB3LYP) =  -569.493180275     A.U. after   10 cycles
 SCF Done:  E(RB3LYP) =  -569.493918816     A.U. after   10 cycles
 SCF Done:  E(RB3LYP) =  -569.495180889     A.U. after   11 cycles
 SCF Done:  E(RB3LYP) =  -569.496461804     A.U. after   12 cycles
 SCF Done:  E(RB3LYP) =  -569.497002966     A.U. after   10 cycles
 SCF Done:  E(RB3LYP) =  -569.497212417     A.U. after   10 cycles
 SCF Done:  E(RB3LYP) =  -569.497219093     A.U. after    8 cycles
 SCF Done:  E(RB3LYP) =  -569.497220526     A.U. after    7 cycles
 SCF Done:  E(RB3LYP) =  -569.497220704     A.U. after    7 cycles
 SCF Done:  E(RB3LYP) =  -569.497220737     A.U. after    6 cycles
 Optimization completed.
    -- Stationary point found.
 Normal termination of Gaussian 16 at Sun May 28 23:56:26 2023.

 ----------------------------------------------------------------------
 #N Geom=AllCheck Guess=TCheck SCRF=Check GenChk RB3LYP/6-31G(2df,p) Fr
 eq
 ----------------------------------------------------------------------

 Structure from the checkpoint file:  "FCqFrqFrCCC1CO1.chk"
 -------------------
 Title Card Required
 -------------------
 Charge =  0 Multiplicity = 1

                         Standard orientation:
 ---------------------------------------------------------------------
 Center     Atomic      Atomic             Coordinates (Angstroms)
 Number     Number       Type             X           Y           Z
 ---------------------------------------------------------------------
      1          9           0       -2.325224    1.230202   -0.029905
      2          6           0       -1.599376    0.102275    0.003054
      3          9           0       -1.869355   -0.514474    1.166018
      4          9           0       -2.053264   -0.694606   -0.981370
      5          6           0       -0.123419    0.395997   -0.150918
      6          6           0        0.725788   -0.877985   -0.143126
      7          6           0        2.216958   -0.631051   -0.056910
      8          6           0        2.897731    0.568135   -0.562139
      9          8           0        2.665809    0.388130    0.838685
     10          1           0        0.175393    1.051509    0.671245
     11          1           0       -0.006937    0.952802   -1.085095
     12          1           0        0.518853   -1.477961   -1.036628
     13          1           0        0.433715   -1.491674    0.717152
     14          1           0        2.808733   -1.546720   -0.005541
     15          1           0        2.329573    1.370802   -1.028083
     16          1           0        3.938692    0.501885   -0.874985
 ---------------------------------------------------------------------

 SCF Done:  E(RB3LYP) =  -569.497220737     A.U. after    1 cycles

 The electronic state is 1-A.
 Alpha  occ. eigenvalues --  -24.71549 -24.71525 -24.71487 -19.15928 -10.41545
 Alpha  occ. eigenvalues --  -10.25027 -10.24226 -10.20964 -10.20603  -1.30227
 Alpha  occ. eigenvalues --   -1.21339  -1.21280  -1.07892  -0.81845  -0.73085
 Alpha  occ. eigenvalues --   -0.67225  -0.65599  -0.59858  -0.58231  -0.57641
 Alpha  occ. eigenvalues --   -0.54644  -0.50307  -0.48502  -0.47564  -0.45628
 Alpha  occ. eigenvalues --   -0.45092  -0.42290  -0.41520  -0.40477  -0.39740
 Alpha  occ. eigenvalues --   -0.39602  -0.37896  -0.36812  -0.35957  -0.30946
 Alpha  occ. eigenvalues --   -0.27714
 Alpha virt. eigenvalues --    0.08955   0.09511   0.10273   0.11026   0.12450
 Alpha virt. eigenvalues --    0.13565   0.15140   0.15890   0.16401   0.17310
 Alpha virt. eigenvalues --    0.21639   0.22705   0.23244   0.26015   0.28378

 Mulliken charges:
               1
     1  F   -0.079437
     2  C    0.285466
     3  F   -0.083363
     4  F   -0.089081
     5  C   -0.338830
     6  C   -0.239578
     7  C    0.081209
     8  C   -0.176524
     9  O   -0.229912
    10  H    0.152131
    11  H    0.128488
    12  H    0.123073
    13  H    0.130840
    14  H    0.098710
    15  H    0.116967
    16  H    0.119840
 Sum of Mulliken charges =  -0.00000

 Dipole moment (field-independent basis, Debye):
    X=              1.7603    Y=             -0.4080    Z=             -1.7226  Tot=              2.4965
 Quadrupole moment (field-independent basis, Debye-Ang):
   XX=            -53.9885   YY=            -49.1409   ZZ=            -51.8187
   XY=             -1.4686   XZ=             -4.6965   YZ=             -1.4180

  Exact polarizability:  66.523   1.336  56.400  -2.158  -2.409  49.779
 Approx polarizability:  79.243   2.916  83.842  -1.321  -2.020  80.288

                      1                      2                      3
                      A                      A                      A
 Frequencies --     40.2047                80.7172               126.2024
 Red. masses --      5.4094                 4.8858                 2.8476
 Frc consts  --      0.0052                 0.0188                 0.0267
 IR Inten    --      2.1396                 2.6346                 0.2065

                      4                      5                      6
                      A                      A                      A
 Frequencies --    143.1195               204.3649               348.2488
 Red. masses --      4.0003                 6.4876                 2.8671
 Frc consts  --      0.0483                 0.1596                 0.2049
 IR Inten    --      3.3529                 0.5025                 2.4041

                      7                      8                      9
                      A                      A                      A
 Frequencies --    374.0109               386.3507               514.0132
 Red. masses --      3.2029                 6.3491                 4.3964
 Frc consts  --      0.2640                 0.5584                 0.6844
 IR Inten    --      2.1782                 7.4105                 9.9844

                     10                     11                     12
                      A                      A                      A
 Frequencies --    539.6076               563.0219               669.9833
 Red. masses --      7.2471                 7.4749                 5.6513
 Frc consts  --      1.2433                 1.3961                 1.4946
 IR Inten    --      0.4828                 0.0793                12.3691

                     13                     14                     15
                      A                      A                      A
 Frequencies --    765.7836               795.4299               851.0725
 Red. masses --      1.6613                 2.2245                 4.5880
 Frc consts  --      0.5740                 0.8292                 1.9580
 IR Inten    --      3.7356                 5.8100                 2.9998

                     16                     17                     18
                      A                      A                      A
 Frequencies --    866.2695               954.5600               983.0194
 Red. masses --      3.6391                 2.1874                 2.5659
 Frc consts  --      1.6090                 1.1743                 1.4609
 IR Inten    --     30.6981                 5.0549                14.4354

                     19                     20                     21
                      A                      A                      A
 Frequencies --   1023.3444              1084.8668              1101.5519
 Red. masses --      1.8452                 1.2119                 2.1843
 Frc consts  --      1.1385                 0.8404                 1.5616
 IR Inten    --     64.4908                22.2734                 7.4108

                     22                     23                     24
                      A                      A                      A
 Frequencies --   1150.6900              1161.4792              1180.2050
 Red. masses --      1.5697                 1.3596                 4.0223
 Frc consts  --      1.2245                 1.0807                 3.3009
 IR Inten    --     17.4520                 1.9618               165.6714

                     25                     26                     27
                      A                      A                      A
 Frequencies --   1186.4516              1258.9792              1273.3119
 Red. masses --      1.6153                 1.9345                 2.8613
 Frc consts  --      1.3397                 1.8066                 2.7333
 IR Inten    --     13.8245               101.8283               138.6852

                     28                     29                     30
                      A                      A                      A
 Frequencies --   1300.7869              1331.3619              1343.9732
 Red. masses --      1.5028                 1.9619                 1.4395
 Frc consts  --      1.4982                 2.0489                 1.5319
 IR Inten    --     11.2193               112.1410                44.0630

                     31                     32                     33
                      A                      A                      A
 Frequencies --   1413.9971              1440.9261              1480.8539
 Red. masses --      1.9893                 1.5837                 1.0871
 Frc consts  --      2.3434                 1.9373                 1.4046
 IR Inten    --     24.7748                13.1720                 2.6334

                     34                     35                     36
                      A                      A                      A
 Frequencies --   1493.5815              1534.5645              3039.4320
 Red. masses --      1.1095                 1.3522                 1.0596
 Frc consts  --      1.4582                 1.8761                 5.7674
 IR Inten    --     14.2597                 2.7684                 9.7879

                     37                     38                     39
                      A                      A                      A
 Frequencies --   3068.2740              3077.6075              3089.1362
 Red. masses --      1.0632                 1.0980                 1.0541
 Frc consts  --      5.8970                 6.1275                 5.9267
 IR Inten    --      6.6120                 8.8840                29.2903

                     40                     41                     42
                      A                      A                      A
 Frequencies --   3096.4578              3123.1712              3174.8805
 Red. masses --      1.0845                 1.1034                 1.1188
 Frc consts  --      6.1264                 6.3411                 6.6441
 IR Inten    --     27.3437                 9.9337                27.8838

 - Thermochemistry -
 -------------------
 Temperature   298.150 Kelvin.  Pressure   1.00000 Atm.
 Atom     1 has atomic number  9 and mass  18.99840

 Molecular mass:   140.04490 amu.
 Principal axes and moments of inertia in atomic units:
                           1         2         3
     Eigenvalues --   503.492872328.207482371.41214
           X            0.99993  -0.00174  -0.01160
           Y            0.00005   0.98960  -0.14386
           Z            0.01172   0.14385   0.98953
 This molecule is an asymmetric top.
 Rotational symmetry number  1.
 Warning -- assumption of classical behavior for rotation
           may cause significant error
 Rotational temperatures (Kelvin)      0.17203     0.03720     0.03652
 Rotational constants (GHZ):           3.58444     0.77516     0.76104
 Zero-point vibrational energy     314832.4 (Joules/Mol)
                                   75.24675 (Kcal/Mol)
 Warning -- explicit consideration of  11 degrees of freedom as
           vibrations may cause significant error
 Vibrational temperatures:     57.85   116.13   181.58   205.92   294.04
          (Kelvin)            501.05   538.12   555.87   739.55   776.38
                              810.06   963.96  1101.79  1144.45  1224.50
                             1246.37  1373.40  1414.35  1472.36  1560.88
                             1584.89  1655.59  1671.11  1698.05  1707.04
                             1811.39  1832.01  1871.54  1915.53  1933.68
                             2034.43  2073.17  2130.62  2148.93  2207.90
                             4373.06  4414.56  4427.99  4444.58  4455.11
                             4493.55  4567.94

 Zero-point correction=                           0.119913 (Hartree/Particle)
 Thermal correction to Energy=                    0.128630
 Thermal correction to Enthalpy=                  0.129574
 Thermal correction to Gibbs Free Energy=         0.084907
 Sum of electronic and zero-point Energies=           -569.377307
 Sum of electronic and thermal Energies=              -569.368591
 Sum of electronic and thermal Enthalpies=            -569.367646
 Sum of electronic and thermal Free Energies=         -569.412314

                     E (Thermal)             CV                S
                      KCal/Mol        Cal/Mol-Kelvin    Cal/Mol-Kelvin
 Total                   80.717             30.854             94.010
 Electronic               0.000              0.000              0.000
 Translational            0.889              2.981             40.722
 Rotational               0.889              2.981             29.409
 Vibrational             78.939             24.893             23.879
 Vibration     1          0.594              1.981              5.249
 Vibration     2          0.600              1.962              3.873
 Vibration     3          0.611              1.927              3.003
 Vibration     4          0.616              1.910              2.762
 Vibration     5          0.640              1.834              2.093
 Vibration     6          0.726              1.579              1.174
 Vibration     7          0.745              1.525              1.063
 Vibration     8          0.755              1.499              1.014
 Vibration     9          0.869              1.219              0.624
 Vibration    10          0.895              1.162              0.566
 Vibration    11          0.919              1.111              0.518

                           ! Non-Optimized Parameters !
 Normal termination of Gaussian 16 at Mon May 29 00:21:32 2023.
