 Gaussian 16, Revision A.03,
 Gaussian 16:  ES64L-G16RevA.03 25-Dec-2016

 -----------------------------
 # opt freq b3lyp/6-31g(2df,p)
 -----------------------------

 -------------------
 Title Card Required
 -------------------
 Symbolic Z-matrix:
 Charge =  0 Multiplicity = 1

 SCF Done:  E(RB3LYP) =  -454.961250970     A.U. after   12 cycles
 SCF Done:  E(RB3LYP) =  -454.962483841     A.U. after   10 cycles
 SCF Done:  E(RB3LYP) =  -454.963201654     A.U. after   10 cycles
 SCF Done:  E(RB3LYP) =  -454.964670192     A.U. after   11 cycles
 SCF Done:  E(RB3LYP) =  -454.965352071     A.U. after   10 cycles
 SCF Done:  E(RB3LYP) =  -454.965649987     A.U. after   10 cycles
 SCF Done:  E(RB3LYP) =  -454.965690283     A.U. after    9 cycles
 SCF Done:  E(RB3LYP) =  -454.965695041     A.U. after    7 cycles
 SCF Done:  E(RB3LYP) =  -454.965696005     A.U. after    6 cycles
 Optimization completed.
    -- Stationary point found.
 Normal termination of Gaussian 16 at Sat May 27 21:43:18 2023.

 ----------------------------------------------------------------------
 #N Geom=AllCheck Guess=TCheck SCRF=Check GenChk RB3LYP/6-31G(2df,p) Fr
 eq
 ----------------------------------------------------------------------

 Structure from the checkpoint file:  "FCqFrqFrC1CC1.chk"
 -------------------
 Title Card Required
 -------------------
 Charge =  0 Multiplicity = 1

                         Standard orientation:
 ---------------------------------------------------------------------
 Center     Atomic      Atomic             Coordinates (Angstroms)
 Number     Number       Type             X           Y           Z
 ---------------------------------------------------------------------
      1          9           0       -0.627519   -0.000015   -1.312557
      2          6           0       -0.676307    0.000010    0.032172
      3          9           0       -1.384561    1.079103    0.405724
      4          9           0       -1.384445   -1.079150    0.405653
      5          6           0        0.691557   -0.000073    0.640403
      6          6           0        1.804703   -0.752412   -0.040826
      7          6           0        1.804564    0.752583   -0.040777
      8          1           0        0.657136   -0.000329    1.723959
      9          1           0        1.571640   -1.254574   -0.972039
     10          1           0        2.511143   -1.275161    0.592868
     11          1           0        1.570534    1.254013   -0.972158
     12          1           0        2.511176    1.275968    0.592161
 ---------------------------------------------------------------------

 SCF Done:  E(RB3LYP) =  -454.965696005     A.U. after    1 cycles

 The electronic state is 1-A.
 Alpha  occ. eigenvalues --  -24.71641 -24.71000 -24.71000 -10.41360 -10.21462
 Alpha  occ. eigenvalues --  -10.20482 -10.20456  -1.29913  -1.21188  -1.20768
 Alpha  occ. eigenvalues --   -0.88115  -0.72001  -0.62796  -0.61950  -0.58089
 Alpha  occ. eigenvalues --   -0.57249  -0.54603  -0.49861  -0.45338  -0.45008
 Alpha  occ. eigenvalues --   -0.44234  -0.41521  -0.41294  -0.39374  -0.37913
 Alpha  occ. eigenvalues --   -0.36904  -0.31664  -0.31609
 Alpha virt. eigenvalues --    0.08370   0.10838   0.10866   0.13598   0.16103
 Alpha virt. eigenvalues --    0.16315   0.20632   0.21752   0.23195   0.24977
 Alpha virt. eigenvalues --    0.25067   0.27764   0.39179   0.41019   0.43652

 Mulliken charges:
               1
     1  F   -0.088371
     2  C    0.277759
     3  F   -0.080016
     4  F   -0.080000
     5  C   -0.135701
     6  C   -0.265227
     7  C   -0.265238
     8  H    0.116267
     9  H    0.136142
    10  H    0.124112
    11  H    0.136135
    12  H    0.124139
 Sum of Mulliken charges =  -0.00000

 Dipole moment (field-independent basis, Debye):
    X=              2.1081    Y=             -0.0001    Z=              0.6349  Tot=              2.2016
 Quadrupole moment (field-independent basis, Debye-Ang):
   XX=            -38.6311   YY=            -39.2541   ZZ=            -37.5670
   XY=              0.0001   XZ=              1.1748   YZ=              0.0003

  Exact polarizability:  46.735  -0.000  42.250  -0.521  -0.000  40.093
 Approx polarizability:  60.670  -0.000  61.313  -2.266  -0.000  58.988

                      1                      2                      3
                      A                      A                      A
 Frequencies --     81.8167               211.2573               235.5059
 Red. masses --      3.5769                 3.3365                 4.9702
 Frc consts  --      0.0141                 0.0877                 0.1624
 IR Inten    --      0.0985                 0.0604                 0.7453

                      4                      5                      6
                      A                      A                      A
 Frequencies --    382.7040               424.6659               527.7715
 Red. masses --      7.3896                 5.1935                 8.8295
 Frc consts  --      0.6377                 0.5518                 1.4490
 IR Inten    --      5.8096                 1.1212                 5.4285

                      7                      8                      9
                      A                      A                      A
 Frequencies --    581.2927               623.9815               770.8747
 Red. masses --      7.3490                 4.2269                 1.7882
 Frc consts  --      1.4631                 0.9697                 0.6261
 IR Inten    --      0.0058                 7.0618                 0.3995

                     10                     11                     12
                      A                      A                      A
 Frequencies --    802.3545               834.5433               938.7923
 Red. masses --      1.7577                 1.2539                 3.3239
 Frc consts  --      0.6667                 0.5145                 1.7260
 IR Inten    --      0.3302                 2.0000                10.1639

                     13                     14                     15
                      A                      A                      A
 Frequencies --    961.7101              1058.6075              1074.6738
 Red. masses --      4.3142                 1.6605                 1.3095
 Frc consts  --      2.3509                 1.0964                 0.8910
 IR Inten    --      8.9753                45.8469                 1.8011

                     16                     17                     18
                      A                      A                      A
 Frequencies --   1094.5145              1129.2065              1182.2150
 Red. masses --      1.3313                 1.1808                 3.0308
 Frc consts  --      0.9397                 0.8871                 2.4957
 IR Inten    --      5.3786                 5.3479               159.0447

                     19                     20                     21
                      A                      A                      A
 Frequencies --   1184.5668              1207.9097              1226.7228
 Red. masses --      5.0823                 1.9663                 2.2340
 Frc consts  --      4.2018                 1.6903                 1.9808
 IR Inten    --    238.1331                66.3091                 3.6369

                     22                     23                     24
                      A                      A                      A
 Frequencies --   1285.5902              1434.8236              1465.0460
 Red. masses --      2.7876                 2.0695                 1.0864
 Frc consts  --      2.7145                 2.5103                 1.3739
 IR Inten    --    128.1779                90.8070                 2.3310

                     25                     26                     27
                      A                      A                      A
 Frequencies --   1506.9023              3147.9815              3150.6975
 Red. masses --      1.4898                 1.0507                 1.0584
 Frc consts  --      1.9932                 6.1345                 6.1901
 IR Inten    --      3.6366                11.4525                 5.3639

                     28                     29                     30
                      A                      A                      A
 Frequencies --   3180.8914              3230.5133              3244.0154
 Red. masses --      1.0899                 1.1185                 1.1158
 Frc consts  --      6.4971                 6.8774                 6.9183
 IR Inten    --      3.3630                 0.2149                 7.0367

 - Thermochemistry -
 -------------------
 Temperature   298.150 Kelvin.  Pressure   1.00000 Atm.
 Atom     1 has atomic number  9 and mass  18.99840

 Molecular mass:   110.03433 amu.
 Principal axes and moments of inertia in atomic units:
                           1         2         3
     Eigenvalues --   406.45277 842.88169 895.58657
           X            0.99994  -0.00000   0.01100
           Y            0.00000   1.00000  -0.00005
           Z           -0.01100   0.00005   0.99994
 This molecule is an asymmetric top.
 Rotational symmetry number  1.
 Rotational temperatures (Kelvin)      0.21310     0.10276     0.09671
 Rotational constants (GHZ):           4.44022     2.14116     2.01515
 Zero-point vibrational energy     228380.0 (Joules/Mol)
                                   54.58412 (Kcal/Mol)
 Warning -- explicit consideration of   7 degrees of freedom as
           vibrations may cause significant error
 Vibrational temperatures:    117.72   303.95   338.84   550.63   611.00
          (Kelvin)            759.35   836.35   897.77  1109.12  1154.41
                             1200.72  1350.71  1383.69  1523.10  1546.22
                             1574.76  1624.68  1700.94  1704.33  1737.91
                             1764.98  1849.68  2064.39  2107.87  2168.10
                             4529.24  4533.15  4576.59  4647.99  4667.41

 Zero-point correction=                           0.086985 (Hartree/Particle)
 Thermal correction to Energy=                    0.093297
 Thermal correction to Enthalpy=                  0.094241
 Thermal correction to Gibbs Free Energy=         0.056386
 Sum of electronic and zero-point Energies=           -454.878711
 Sum of electronic and thermal Energies=              -454.872399
 Sum of electronic and thermal Enthalpies=            -454.871455
 Sum of electronic and thermal Free Energies=         -454.909310

                     E (Thermal)             CV                S
                      KCal/Mol        Cal/Mol-Kelvin    Cal/Mol-Kelvin
 Total                   58.545             22.899             79.674
 Electronic               0.000              0.000              0.000
 Translational            0.889              2.981             40.003
 Rotational               0.889              2.981             27.220
 Vibrational             56.767             16.937             12.451
 Vibration     1          0.600              1.962              3.847
 Vibration     2          0.643              1.824              2.033
 Vibration     3          0.655              1.786              1.837
 Vibration     4          0.752              1.507              1.028
 Vibration     5          0.787              1.417              0.876
 Vibration     6          0.883              1.189              0.592
 Vibration     7          0.938              1.072              0.483

 Optimization completed.
    -- Stationary point found.
 Normal termination of Gaussian 16 at Sat May 27 21:53:53 2023.
