 Gaussian 16, Revision A.03,
 Gaussian 16:  ES64L-G16RevA.03 25-Dec-2016

 -----------------------------
 # opt freq b3lyp/6-31g(2df,p)
 -----------------------------

 -------------------
 Title Card Required
 -------------------
 Symbolic Z-matrix:
 Charge =  0 Multiplicity = 1

 SCF Done:  E(RB3LYP) =  -532.314070630     A.U. after   12 cycles
 SCF Done:  E(RB3LYP) =  -532.332448388     A.U. after   10 cycles
 SCF Done:  E(RB3LYP) =  -532.334883765     A.U. after   10 cycles
 SCF Done:  E(RB3LYP) =  -532.335356660     A.U. after   10 cycles
 SCF Done:  E(RB3LYP) =  -532.335455249     A.U. after    9 cycles
 SCF Done:  E(RB3LYP) =  -532.335483878     A.U. after    8 cycles
 SCF Done:  E(RB3LYP) =  -532.335501437     A.U. after    8 cycles
 SCF Done:  E(RB3LYP) =  -532.335509788     A.U. after    8 cycles
 SCF Done:  E(RB3LYP) =  -532.335522916     A.U. after    8 cycles
 SCF Done:  E(RB3LYP) =  -532.335526241     A.U. after    8 cycles
 SCF Done:  E(RB3LYP) =  -532.335527616     A.U. after    6 cycles
 Optimization completed.
    -- Stationary point found.
 Normal termination of Gaussian 16 at Sat May 27 20:26:06 2023.

 ----------------------------------------------------------------------
 #N Geom=AllCheck Guess=TCheck SCRF=Check GenChk RB3LYP/6-31G(2df,p) Fr
 eq
 ----------------------------------------------------------------------

 Structure from the checkpoint file:  "FCqFrqFrC12CCqC1rC2.chk"
 -------------------
 Title Card Required
 -------------------
 Charge =  0 Multiplicity = 1

                         Standard orientation:
 ---------------------------------------------------------------------
 Center     Atomic      Atomic             Coordinates (Angstroms)
 Number     Number       Type             X           Y           Z
 ---------------------------------------------------------------------
      1          9           0       -1.614272    0.005946   -1.250625
      2          6           0       -1.123987   -0.000024   -0.000066
      3          9           0       -1.613911    1.080201    0.630475
      4          9           0       -1.614182   -1.086101    0.620237
      5          6           0        0.375083   -0.000148   -0.000106
      6          6           0        1.305765   -1.074648   -0.628265
      7          6           0        2.243740    0.000100    0.000068
      8          6           0        1.305484    1.081394   -0.616554
      9          6           0        1.305458   -0.006755    1.244783
     10          1           0        1.296837   -1.145853   -1.718264
     11          1           0        1.296857   -2.059415   -0.155595
     12          1           0        3.332716    0.000158    0.000172
     13          1           0        1.296599    1.164363   -1.705726
     14          1           0        1.296295    2.060944   -0.133192
     15          1           0        1.296222    0.895005    1.861212
     16          1           0        1.296498   -0.915126    1.851449
 ---------------------------------------------------------------------

 SCF Done:  E(RB3LYP) =  -532.335527616     A.U. after    1 cycles

 The electronic state is 1-A.
 Alpha  occ. eigenvalues --  -24.71200 -24.71198 -24.71196 -10.41018 -10.22522
 Alpha  occ. eigenvalues --  -10.21633 -10.20192 -10.20191 -10.20191  -1.29840
 Alpha  occ. eigenvalues --   -1.20973  -1.20970  -0.93148  -0.73206  -0.68192
 Alpha  occ. eigenvalues --   -0.68191  -0.63587  -0.57521  -0.57520  -0.56343
 Alpha  occ. eigenvalues --   -0.54852  -0.46679  -0.46679  -0.44930  -0.44930
 Alpha  occ. eigenvalues --   -0.42415  -0.41614  -0.41613  -0.39309  -0.36581
 Alpha  occ. eigenvalues --   -0.34226  -0.34226  -0.33225  -0.33223  -0.31516
 Alpha virt. eigenvalues --    0.09574   0.11265   0.11416   0.11417   0.14089
 Alpha virt. eigenvalues --    0.14090   0.15079   0.15079   0.17257   0.18153
 Alpha virt. eigenvalues --    0.18153   0.22850   0.23147   0.23280   0.27410

 Mulliken charges:
               1
     1  F   -0.081166
     2  C    0.183416
     3  F   -0.081251
     4  F   -0.081302
     5  C    0.183110
     6  C   -0.259565
     7  C   -0.060556
     8  C   -0.259523
     9  C   -0.259509
    10  H    0.105188
    11  H    0.105187
    12  H    0.085213
    13  H    0.105180
    14  H    0.105198
    15  H    0.105192
    16  H    0.105188
 Sum of Mulliken charges =  -0.00000

 Dipole moment (field-independent basis, Debye):
    X=              2.2807    Y=              0.0001    Z=             -0.0004  Tot=              2.2807
 Quadrupole moment (field-independent basis, Debye-Ang):
   XX=            -51.9296   YY=            -50.2849   ZZ=            -50.2845
   XY=             -0.0008   XZ=              0.0005   YZ=              0.0003

  Exact polarizability:  62.019  -0.001  61.261  -0.001  -0.000  61.261
 Approx polarizability:  85.410  -0.002  91.437  -0.001  -0.001  91.437

                      1                      2                      3
                      A                      A                      A
 Frequencies --     46.0483               158.6932               158.9322
 Red. masses --      4.5539                 5.3579                 5.3607
 Frc consts  --      0.0057                 0.0795                 0.0798
 IR Inten    --      0.0000                 0.4029                 0.4021

                      4                      5                      6
                      A                      A                      A
 Frequencies --    352.1854               387.1031               387.1270
 Red. masses --      7.0022                 5.7126                 5.7064
 Frc consts  --      0.5117                 0.5044                 0.5039
 IR Inten    --      6.8976                 1.7631                 1.7630

                      7                      8                      9
                      A                      A                      A
 Frequencies --    533.5405               533.9109               582.6581
 Red. masses --      2.7801                 2.7993                 3.9581
 Frc consts  --      0.4663                 0.4701                 0.7917
 IR Inten    --      0.0042                 0.0043                 0.0017

                     10                     11                     12
                      A                      A                      A
 Frequencies --    582.8372               734.4527               804.7236
 Red. masses --      3.9204                11.6201                 2.7505
 Frc consts  --      0.7847                 3.6931                 1.0494
 IR Inten    --      0.0014                 6.9295                 0.0001

                     13                     14                     15
                      A                      A                      A
 Frequencies --    804.8106               892.6372               933.3879
 Red. masses --      2.7516                 3.1386                 3.9652
 Frc consts  --      1.0501                 1.4734                 2.0353
 IR Inten    --      0.0001                 0.2075                 5.2611

                     16                     17                     18
                      A                      A                      A
 Frequencies --    964.7564               967.9442               967.9517
 Red. masses --      1.2429                 1.6819                 1.6818
 Frc consts  --      0.6816                 0.9284                 0.9284
 IR Inten    --      0.0004                 2.9810                 2.9878

                     19                     20                     21
                      A                      A                      A
 Frequencies --    999.6932              1099.2639              1099.3108
 Red. masses --      1.0148                 1.5658                 1.5651
 Frc consts  --      0.5975                 1.1148                 1.1144
 IR Inten    --      0.0000                 2.1845                 2.1776

                     22                     23                     24
                      A                      A                      A
 Frequencies --   1138.0866              1142.2593              1142.4690
 Red. masses --      6.7674                 1.3633                 1.3632
 Frc consts  --      5.1644                 1.0480                 1.0483
 IR Inten    --    107.7164                 0.2975                 0.2994

                     25                     26                     27
                      A                      A                      A
 Frequencies --   1161.7168              1161.8487              1197.7404
 Red. masses --      2.0814                 2.0756                 3.6688
 Frc consts  --      1.6550                 1.6508                 3.1010
 IR Inten    --     43.5391                43.0736               134.1360

                     28                     29                     30
                      A                      A                      A
 Frequencies --   1197.9065              1237.2183              1237.2814
 Red. masses --      3.6795                 1.9481                 1.9510
 Frc consts  --      3.1109                 1.7569                 1.7597
 IR Inten    --    134.4087                22.0831                22.2820

                     31                     32                     33
                      A                      A                      A
 Frequencies --   1253.4152              1395.1422              1499.8459
 Red. masses --      1.6914                 7.0496                 1.0977
 Frc consts  --      1.5656                 8.0845                 1.4549
 IR Inten    --     75.0339               125.6969                 0.3320

                     34                     35                     36
                      A                      A                      A
 Frequencies --   1500.0804              1557.4336              3059.6870
 Red. masses --      1.0977                 1.2057                 1.0538
 Frc consts  --      1.4553                 1.7231                 5.8127
 IR Inten    --      0.3333                 2.5609                49.8005

                     37                     38                     39
                      A                      A                      A
 Frequencies --   3059.7794              3066.1282              3125.7439
 Red. masses --      1.0538                 1.0545                 1.0929
 Frc consts  --      5.8129                 5.8408                 6.2911
 IR Inten    --     49.9492                 0.3825                49.1577

                     40                     41                     42
                      A                      A                      A
 Frequencies --   3127.2901              3132.1145              3132.1963
 Red. masses --      1.1130                 1.1114                 1.1114
 Frc consts  --      6.4135                 6.4238                 6.4241
 IR Inten    --      0.0018                41.8068                41.6813

 - Thermochemistry -
 -------------------
 Temperature   298.150 Kelvin.  Pressure   1.00000 Atm.
 Atom     1 has atomic number  9 and mass  18.99840

 Molecular mass:   136.04999 amu.
 Principal axes and moments of inertia in atomic units:
                           1         2         3
     Eigenvalues --   609.690101399.826311399.84151
           X            1.00000  -0.00001  -0.00000
           Y            0.00001   0.99831   0.05819
           Z            0.00000  -0.05819   0.99831
 This molecule is an asymmetric top.
 Rotational symmetry number  1.
 Warning -- assumption of classical behavior for rotation
           may cause significant error
 Rotational temperatures (Kelvin)      0.14206     0.06187     0.06187
 Rotational constants (GHZ):           2.96010     1.28926     1.28925
 Zero-point vibrational energy     320104.9 (Joules/Mol)
                                   76.50690 (Kcal/Mol)
 Warning -- explicit consideration of  10 degrees of freedom as
           vibrations may cause significant error
 Vibrational temperatures:     66.25   228.32   228.67   506.72   556.96
          (Kelvin)            556.99   767.65   768.18   838.32   838.57
                             1056.71  1157.82  1157.94  1284.31  1342.94
                             1388.07  1392.66  1392.67  1438.34  1581.60
                             1581.66  1637.45  1643.46  1643.76  1671.45
                             1671.64  1723.28  1723.52  1780.08  1780.17
                             1803.38  2007.30  2157.94  2158.28  2240.80
                             4402.21  4402.34  4411.47  4497.25  4499.47
                             4506.41  4506.53

 Zero-point correction=                           0.121921 (Hartree/Particle)
 Thermal correction to Energy=                    0.129366
 Thermal correction to Enthalpy=                  0.130310
 Thermal correction to Gibbs Free Energy=         0.089171
 Sum of electronic and zero-point Energies=           -532.213606
 Sum of electronic and thermal Energies=              -532.206162
 Sum of electronic and thermal Enthalpies=            -532.205217
 Sum of electronic and thermal Free Energies=         -532.246357

                     E (Thermal)             CV                S
                      KCal/Mol        Cal/Mol-Kelvin    Cal/Mol-Kelvin
 Total                   81.178             28.452             86.585
 Electronic               0.000              0.000              0.000
 Translational            0.889              2.981             40.636
 Rotational               0.889              2.981             28.570
 Vibrational             79.401             22.490             17.379
 Vibration     1          0.595              1.979              4.980
 Vibration     2          0.621              1.893              2.565
 Vibration     3          0.621              1.893              2.562
 Vibration     4          0.729              1.571              1.156
 Vibration     5          0.756              1.498              1.011
 Vibration     6          0.756              1.498              1.011
 Vibration     7          0.889              1.176              0.579
 Vibration     8          0.889              1.175              0.579
 Vibration     9          0.939              1.069              0.480
 Vibration    10          0.940              1.068              0.480

 Optimization completed.
    -- Stationary point found.
 Normal termination of Gaussian 16 at Sat May 27 20:49:02 2023.
