 Gaussian 16, Revision A.03,
 Gaussian 16:  ES64L-G16RevA.03 25-Dec-2016

 -----------------------------
 # opt freq b3lyp/6-31g(2df,p)
 -----------------------------

 -------------------
 Title Card Required
 -------------------
 Symbolic Z-matrix:
 Charge =  0 Multiplicity = 1

 SCF Done:  E(RB3LYP) =  -698.715554049     A.U. after   27 cycles
 SCF Done:  E(RB3LYP) =  -698.814974248     A.U. after   19 cycles
 SCF Done:  E(RB3LYP) =  -698.952853807     A.U. after   19 cycles
 SCF Done:  E(RB3LYP) =  -698.996062608     A.U. after   17 cycles
 SCF Done:  E(RB3LYP) =  -699.076677408     A.U. after   17 cycles
 SCF Done:  E(RB3LYP) =  -699.127282823     A.U. after   17 cycles
 SCF Done:  E(RB3LYP) =  -699.164699531     A.U. after   16 cycles
 SCF Done:  E(RB3LYP) =  -699.196895207     A.U. after   15 cycles
 SCF Done:  E(RB3LYP) =  -699.217608967     A.U. after   15 cycles
 SCF Done:  E(RB3LYP) =  -699.234136460     A.U. after   14 cycles
 SCF Done:  E(RB3LYP) =  -699.274895948     A.U. after   11 cycles
 SCF Done:  E(RB3LYP) =  -699.274954286     A.U. after   12 cycles
 SCF Done:  E(RB3LYP) =  -699.274973645     A.U. after   11 cycles
 SCF Done:  E(RB3LYP) =  -699.274980620     A.U. after   10 cycles
 SCF Done:  E(RB3LYP) =  -699.274985779     A.U. after   10 cycles
 SCF Done:  E(RB3LYP) =  -699.274986584     A.U. after    9 cycles
 SCF Done:  E(RB3LYP) =  -699.274987013     A.U. after    8 cycles
 SCF Done:  E(RB3LYP) =  -699.274987162     A.U. after    8 cycles
 SCF Done:  E(RB3LYP) =  -699.274987247     A.U. after    7 cycles
 Optimization completed.
    -- Stationary point found.
 Normal termination of Gaussian 16 at Sun May 28 08:46:13 2023.

 ----------------------------------------------------------------------
 #N Geom=AllCheck Guess=TCheck SCRF=Check GenChk RB3LYP/6-31G(2df,p) Fr
 eq
 ----------------------------------------------------------------------

 Structure from the checkpoint file:  "NC1CdCCdCCdNC2dNCdC2CdCdNN1.chk"
 -------------------
 Title Card Required
 -------------------
 Charge =  0 Multiplicity = 1

                         Standard orientation:
 ---------------------------------------------------------------------
 Center     Atomic      Atomic             Coordinates (Angstroms)
 Number     Number       Type             X           Y           Z
 ---------------------------------------------------------------------
      1          7           0       -4.165832    0.830345    0.374284
      2          6           0       -3.175712    0.159456   -0.439506
      3          6           0       -2.418598   -0.875691    0.357102
      4          6           0       -1.714605   -1.875504   -0.207898
      5          6           0       -0.500845   -2.324480    0.434850
      6          6           0        0.654911   -2.503178   -0.256601
      7          6           0        1.816659   -1.890844    0.336065
      8          7           0        2.647604   -1.236106   -0.399967
      9          6           0        3.050325    0.015637   -0.162386
     10          7           0        4.077154    0.756635   -0.462475
     11          6           0        3.213767    1.924298   -0.024378
     12          6           0        2.128130    1.216800    0.298363
     13          6           0        0.786190    1.176133    0.841204
     14          6           0       -0.374016    1.554044    0.337749
     15          7           0       -1.505598    1.920607    0.032521
     16          7           0       -2.241313    1.183557   -0.987305
     17          1           0       -4.902407    0.185714    0.639897
     18          1           0       -4.582824    1.588810   -0.155675
     19          1           0       -3.566983   -0.311175   -1.360213
     20          1           0       -2.255187   -0.620927    1.402316
     21          1           0       -1.844293   -2.104688   -1.264930
     22          1           0       -0.434875   -2.141557    1.506542
     23          1           0        0.654974   -2.615492   -1.336882
     24          1           0        1.825304   -1.810745    1.431236
     25          1           0        3.513335    2.964751   -0.034077
     26          1           0        0.668000    0.546723    1.730462
     27          1           0       -1.556387    0.673300   -1.545471
 ---------------------------------------------------------------------

 SCF Done:  E(RB3LYP) =  -699.274987247     A.U. after    1 cycles

 The electronic state is 1-A.
 Alpha  occ. eigenvalues --  -14.37625 -14.37489 -14.34758 -14.32772 -14.29000
 Alpha  occ. eigenvalues --  -10.27006 -10.26995 -10.25628 -10.24582 -10.23891
 Alpha  occ. eigenvalues --  -10.22545 -10.22323 -10.21913 -10.21750 -10.21320
 Alpha  occ. eigenvalues --  -10.19375  -1.00097  -0.97329  -0.92232  -0.91352
 Alpha  occ. eigenvalues --   -0.85339  -0.83639  -0.79107  -0.77678  -0.70935
 Alpha  occ. eigenvalues --   -0.69114  -0.65085  -0.61066  -0.59825  -0.57968
 Alpha  occ. eigenvalues --   -0.56665  -0.54260  -0.52655  -0.51299  -0.49421
 Alpha  occ. eigenvalues --   -0.48018  -0.47235  -0.46026  -0.44714  -0.43927
 Alpha  occ. eigenvalues --   -0.42282  -0.41881  -0.40926  -0.38769  -0.38542
 Alpha  occ. eigenvalues --   -0.37077  -0.36104  -0.33553  -0.32792  -0.28497
 Alpha  occ. eigenvalues --   -0.27716  -0.26111  -0.25904  -0.23996  -0.22643
 Alpha  occ. eigenvalues --   -0.18111
 Alpha virt. eigenvalues --   -0.09480  -0.03939  -0.02219  -0.01176   0.00302
 Alpha virt. eigenvalues --    0.02584   0.05426   0.07702   0.09369   0.10302
 Alpha virt. eigenvalues --    0.11988   0.12616   0.13238   0.13702   0.14481

 Mulliken charges:
               1
     1  N   -0.491398
     2  C   -0.002139
     3  C   -0.033720
     4  C   -0.104116
     5  C   -0.050847
     6  C   -0.122761
     7  C   -0.002049
     8  N   -0.243118
     9  C    0.364337
    10  N   -0.384355
    11  C   -0.125343
    12  C    0.172446
    13  C   -0.420496
    14  C    0.378884
    15  N   -0.260903
    16  N   -0.290224
    17  H    0.235198
    18  H    0.245809
    19  H    0.082074
    20  H    0.119798
    21  H    0.104614
    22  H    0.111823
    23  H    0.123061
    24  H    0.117209
    25  H    0.126223
    26  H    0.118587
    27  H    0.231406
 Sum of Mulliken charges =   0.00000

 Dipole moment (field-independent basis, Debye):
    X=             -5.6278    Y=             -3.3052    Z=              0.8781  Tot=              6.5854
 Quadrupole moment (field-independent basis, Debye-Ang):
   XX=           -103.3960   YY=            -92.3956   ZZ=            -89.0043
   XY=              5.0676   XZ=              8.8117   YZ=             -1.6346

  Exact polarizability: 255.736  14.574 153.718  -5.441  -0.441 101.826
 Approx polarizability: 473.055  21.892 268.726 -26.258  -5.008 184.759

                      1                      2                      3
                      A                      A                      A
 Frequencies --     58.2786                70.2617                91.1634
 Red. masses --      5.0820                 5.7127                 6.2363
 Frc consts  --      0.0102                 0.0166                 0.0305
 IR Inten    --      4.8678                 0.5076                 2.5947

                      4                      5                      6
                      A                      A                      A
 Frequencies --    118.2133               128.1130               157.2504
 Red. masses --      4.1620                 6.6265                 2.3097
 Frc consts  --      0.0343                 0.0641                 0.0337
 IR Inten    --      4.9859                 1.0879                22.8519

                      7                      8                      9
                      A                      A                      A
 Frequencies --    185.7789               214.7928               217.1286
 Red. masses --      3.0374                 3.1067                 3.8224
 Frc consts  --      0.0618                 0.0844                 0.1062
 IR Inten    --      4.2808                 2.5417                 9.9370

                     10                     11                     12
                      A                      A                      A
 Frequencies --    261.3164               270.7541               274.7748
 Red. masses --      1.3970                 3.2822                 3.4224
 Frc consts  --      0.0562                 0.1418                 0.1522
 IR Inten    --     24.4489                 3.3248                 2.3944

                     13                     14                     15
                      A                      A                      A
 Frequencies --    311.7476               317.9260               356.9789
 Red. masses --      3.7571                 3.1300                 5.1737
 Frc consts  --      0.2151                 0.1864                 0.3885
 IR Inten    --      7.3623                 1.0588                 2.5540

                     16                     17                     18
                      A                      A                      A
 Frequencies --    364.2946               430.1638               453.5818
 Red. masses --      4.0505                 3.4263                 4.2920
 Frc consts  --      0.3167                 0.3736                 0.5203
 IR Inten    --      0.1031                 7.3622                10.4074

                     19                     20                     21
                      A                      A                      A
 Frequencies --    488.1586               520.3096               537.9188
 Red. masses --      6.8020                 4.2673                 4.0248
 Frc consts  --      0.9550                 0.6807                 0.6862
 IR Inten    --      7.2570                 1.1860                26.5637

                     22                     23                     24
                      A                      A                      A
 Frequencies --    564.3171               609.4028               652.2678
 Red. masses --      3.7839                 4.4048                 4.1856
 Frc consts  --      0.7100                 0.9638                 1.0492
 IR Inten    --      4.7987                12.9217                61.6561

                     25                     26                     27
                      A                      A                      A
 Frequencies --    658.7385               721.6493               755.9212
 Red. masses --      5.0802                 5.4396                 2.9692
 Frc consts  --      1.2988                 1.6691                 0.9996
 IR Inten    --     10.0108                12.5973                57.5669

                     28                     29                     30
                      A                      A                      A
 Frequencies --    780.0649               802.4300               827.4508
 Red. masses --      2.9173                 3.7065                 4.2985
 Frc consts  --      1.0459                 1.4062                 1.7340
 IR Inten    --     14.3662                16.3528                41.8029

                     31                     32                     33
                      A                      A                      A
 Frequencies --    843.3966               864.9073               878.6179
 Red. masses --      1.4965                 1.7527                 1.7489
 Frc consts  --      0.6272                 0.7725                 0.7954
 IR Inten    --    164.1204                19.2662                15.0638

                     34                     35                     36
                      A                      A                      A
 Frequencies --    888.2027               936.5267               963.1799
 Red. masses --      2.1473                 3.3063                 1.7493
 Frc consts  --      0.9981                 1.7086                 0.9562
 IR Inten    --     97.4934                24.7696                29.5599

                     37                     38                     39
                      A                      A                      A
 Frequencies --    970.5659              1004.8803              1039.4348
 Red. masses --      1.5049                 1.2278                 5.9933
 Frc consts  --      0.8353                 0.7305                 3.8151
 IR Inten    --     45.7767                14.8295                 4.9845

                     40                     41                     42
                      A                      A                      A
 Frequencies --   1053.4841              1073.5021              1145.2932
 Red. masses --      1.4818                 1.7573                 3.4463
 Frc consts  --      0.9690                 1.1932                 2.6634
 IR Inten    --     37.9724               120.2549                16.1471

                     43                     44                     45
                      A                      A                      A
 Frequencies --   1153.8727              1159.7997              1174.7197
 Red. masses --      2.2473                 1.7977                 2.0755
 Frc consts  --      1.7629                 1.4247                 1.6875
 IR Inten    --     18.5919                74.1540                31.5658

                     46                     47                     48
                      A                      A                      A
 Frequencies --   1183.7701              1213.1502              1225.7055
 Red. masses --      2.7260                 1.2515                 1.7273
 Frc consts  --      2.2507                 1.0852                 1.5290
 IR Inten    --     12.5149                 5.3646                20.1624

                     49                     50                     51
                      A                      A                      A
 Frequencies --   1252.2651              1289.1215              1311.0442
 Red. masses --      1.2343                 1.3142                 1.6174
 Frc consts  --      1.1404                 1.2867                 1.6380
 IR Inten    --      2.8435                 8.8063                 4.8605

                     52                     53                     54
                      A                      A                      A
 Frequencies --   1323.3799              1357.7421              1366.0359
 Red. masses --      1.4060                 1.3514                 1.3400
 Frc consts  --      1.4508                 1.4678                 1.4733
 IR Inten    --      1.7996                32.6864                14.7980

                     55                     56                     57
                      A                      A                      A
 Frequencies --   1392.9136              1404.3381              1481.9984
 Red. masses --      1.4809                 2.8804                 1.2341
 Frc consts  --      1.6928                 3.3469                 1.5969
 IR Inten    --     17.5586                 3.3251                52.7472

                     58                     59                     60
                      A                      A                      A
 Frequencies --   1579.4239              1620.4576              1640.5210
 Red. masses --      5.6091                 5.7523                 1.3652
 Frc consts  --      8.2441                 8.8996                 2.1648
 IR Inten    --    173.5582               127.0681                44.6694

                     61                     62                     63
                      A                      A                      A
 Frequencies --   1642.2452              1667.5380              1717.4405
 Red. masses --      3.0250                 7.3826                 8.4176
 Frc consts  --      4.8067                12.0951                14.6286
 IR Inten    --     59.1298               168.8206                 4.6407

                     64                     65                     66
                      A                      A                      A
 Frequencies --   2059.9127              2927.2911              3022.6613
 Red. masses --     12.0102                 1.0816                 1.0860
 Frc consts  --     30.0259                 5.4608                 5.8462
 IR Inten    --    209.8887                51.1387                34.4881

                     67                     68                     69
                      A                      A                      A
 Frequencies --   3044.5192              3134.8263              3142.3079
 Red. masses --      1.0798                 1.0874                 1.0893
 Frc consts  --      5.8971                 6.2960                 6.3372
 IR Inten    --      8.3105                 4.1921                10.7670

                     70                     71                     72
                      A                      A                      A
 Frequencies --   3156.3864              3180.1436              3217.1665
 Red. masses --      1.0874                 1.0898                 1.1014
 Frc consts  --      6.3827                 6.4938                 6.7164
 IR Inten    --      8.0113                 4.5173                19.0703

                     73                     74                     75
                      A                      A                      A
 Frequencies --   3446.9773              3509.2924              3597.4839
 Red. masses --      1.0755                 1.0486                 1.0938
 Frc consts  --      7.5291                 7.6089                 8.3401
 IR Inten    --      1.7234                 3.8044                 5.8738

 - Thermochemistry -
 -------------------
 Temperature   298.150 Kelvin.  Pressure   1.00000 Atm.
 Atom     1 has atomic number  7 and mass  14.00307

 Molecular mass:   213.10145 amu.
 Principal axes and moments of inertia in atomic units:
                           1         2         3
     Eigenvalues --  1939.071884974.732776497.15421
           X            0.99998   0.00478   0.00472
           Y           -0.00477   0.99999  -0.00099
           Z           -0.00472   0.00097   0.99999
 This molecule is an asymmetric top.
 Rotational symmetry number  1.
 Warning -- assumption of classical behavior for rotation
           may cause significant error
 Rotational temperatures (Kelvin)      0.04467     0.01741     0.01333
 Rotational constants (GHZ):           0.93072     0.36278     0.27777
 Zero-point vibrational energy     541068.5 (Joules/Mol)
                                  129.31848 (Kcal/Mol)
 Warning -- explicit consideration of  23 degrees of freedom as
           vibrations may cause significant error
 Vibrational temperatures:     83.85   101.09   131.16   170.08   184.33
          (Kelvin)            226.25   267.29   309.04   312.40   375.98
                              389.55   395.34   448.54   457.42   513.61
                              524.14   618.91   652.60   702.35   748.61
                              773.95   811.93   876.79   938.47   947.78
                             1038.29  1087.60  1122.34  1154.52  1190.52
                             1213.46  1244.41  1264.14  1277.93  1347.45
                             1385.80  1396.43  1445.80  1495.51  1515.73
                             1544.53  1647.82  1660.17  1668.69  1690.16
                             1703.18  1745.45  1763.52  1801.73  1854.76
                             1886.30  1904.05  1953.49  1965.42  2004.09
                             2020.53  2132.27  2272.44  2331.48  2360.34
                             2362.82  2399.22  2471.01  2963.75  4211.72
                             4348.94  4380.38  4510.32  4521.08  4541.34
                             4575.52  4628.78  4959.43  5049.09  5175.98

 Zero-point correction=                           0.206082 (Hartree/Particle)
 Thermal correction to Energy=                    0.220770
 Thermal correction to Enthalpy=                  0.221714
 Thermal correction to Gibbs Free Energy=         0.164882
 Sum of electronic and zero-point Energies=           -699.068905
 Sum of electronic and thermal Energies=              -699.054218
 Sum of electronic and thermal Enthalpies=            -699.053273
 Sum of electronic and thermal Free Energies=         -699.110105

                     E (Thermal)             CV                S
                      KCal/Mol        Cal/Mol-Kelvin    Cal/Mol-Kelvin
 Total                  138.535             56.256            119.613
 Electronic               0.000              0.000              0.000
 Translational            0.889              2.981             41.973
 Rotational               0.889              2.981             32.505
 Vibrational            136.758             50.294             45.135
 Vibration     1          0.596              1.974              4.515
 Vibration     2          0.598              1.968              4.146
 Vibration     3          0.602              1.955              3.635
 Vibration     4          0.608              1.934              3.129
 Vibration     5          0.611              1.925              2.974
 Vibration     6          0.621              1.895              2.583
 Vibration     7          0.632              1.859              2.270
 Vibration     8          0.645              1.818              2.003
 Vibration     9          0.646              1.815              1.983
 Vibration    10          0.669              1.744              1.653
 Vibration    11          0.674              1.727              1.591
 Vibration    12          0.677              1.720              1.566
 Vibration    13          0.700              1.651              1.353
 Vibration    14          0.704              1.639              1.321
 Vibration    15          0.732              1.561              1.135
 Vibration    16          0.738              1.546              1.104
 Vibration    17          0.791              1.405              0.858
 Vibration    18          0.812              1.353              0.785
 Vibration    19          0.844              1.276              0.688
 Vibration    20          0.875              1.205              0.609
 Vibration    21          0.893              1.166              0.570
 Vibration    22          0.920              1.108              0.515
 Vibration    23          0.968              1.012              0.434

                           ! Non-Optimized Parameters !
 Normal termination of Gaussian 16 at Sun May 28 10:52:44 2023.
