 Gaussian 16, Revision A.03,
 Gaussian 16:  ES64L-G16RevA.03 25-Dec-2016

 -----------------------------
 # opt freq b3lyp/6-31g(2df,p)
 -----------------------------

 -------------------
 Title Card Required
 -------------------
 Symbolic Z-matrix:
 Charge =  0 Multiplicity = 1

 SCF Done:  E(RB3LYP) =  -633.168780326     A.U. after   13 cycles
 SCF Done:  E(RB3LYP) =  -633.184998119     A.U. after   12 cycles
 SCF Done:  E(RB3LYP) =  -633.188228851     A.U. after   11 cycles
 SCF Done:  E(RB3LYP) =  -633.190694725     A.U. after   11 cycles
 SCF Done:  E(RB3LYP) =  -633.193578825     A.U. after   12 cycles
 SCF Done:  E(RB3LYP) =  -633.194705533     A.U. after   10 cycles
 SCF Done:  E(RB3LYP) =  -633.195101511     A.U. after   10 cycles
 SCF Done:  E(RB3LYP) =  -633.195164025     A.U. after   10 cycles
 SCF Done:  E(RB3LYP) =  -633.195361867     A.U. after   10 cycles
 SCF Done:  E(RB3LYP) =  -633.195312898     A.U. after    9 cycles
 SCF Done:  E(RB3LYP) =  -633.199215043     A.U. after   11 cycles
 SCF Done:  E(RB3LYP) =  -633.195032307     A.U. after   12 cycles
 SCF Done:  E(RB3LYP) =  -633.199796677     A.U. after   11 cycles
 SCF Done:  E(RB3LYP) =  -633.199853642     A.U. after   11 cycles
 SCF Done:  E(RB3LYP) =  -633.199964462     A.U. after   10 cycles
 SCF Done:  E(RB3LYP) =  -633.199971261     A.U. after    9 cycles
 SCF Done:  E(RB3LYP) =  -633.199982537     A.U. after    9 cycles
 SCF Done:  E(RB3LYP) =  -633.199983593     A.U. after    7 cycles
 SCF Done:  E(RB3LYP) =  -633.199983693     A.U. after    7 cycles
 Optimization completed.
    -- Stationary point found.
 Normal termination of Gaussian 16 at Sun May 28 22:01:58 2023.

 ----------------------------------------------------------------------
 #N Geom=AllCheck Guess=TCheck SCRF=Check GenChk RB3LYP/6-31G(2df,p) Fr
 eq
 ----------------------------------------------------------------------

 Structure from the checkpoint file:  "NCC1dNCqCNrCCCCqOrCC1.chk"
 -------------------
 Title Card Required
 -------------------
 Charge =  0 Multiplicity = 1

                         Standard orientation:
 ---------------------------------------------------------------------
 Center     Atomic      Atomic             Coordinates (Angstroms)
 Number     Number       Type             X           Y           Z
 ---------------------------------------------------------------------
      1          7           0       -0.292939    3.404327   -1.011057
      2          6           0       -0.832344    2.690349    0.135665
      3          6           0       -0.177468    1.354693    0.491177
      4          7           0        0.873768    1.027612   -0.141862
      5          6           0        1.660237   -0.166064    0.149606
      6          6           0        3.107945    0.175335   -0.255136
      7          7           0        4.038149   -0.880467    0.152500
      8          6           0        1.169778   -1.431191   -0.593075
      9          6           0        0.115107   -2.297288    0.138639
     10          6           0       -1.340776   -2.195555   -0.346034
     11          6           0       -2.039082   -0.829332   -0.341955
     12          8           0       -3.335900   -0.966018   -0.927536
     13          6           0       -2.163569   -0.134137    1.026868
     14          6           0       -0.886458    0.558729    1.571107
     15          1           0       -0.557873    2.902743   -1.855194
     16          1           0        0.720017    3.305343   -0.979617
     17          1           0       -1.909767    2.542173   -0.008471
     18          1           0       -0.749550    3.327754    1.030596
     19          1           0        1.670974   -0.390386    1.229887
     20          1           0        3.345229    1.169947    0.154304
     21          1           0        3.148097    0.269169   -1.346666
     22          1           0        4.169885   -0.857309    1.159910
     23          1           0        4.952335   -0.713307   -0.254566
     24          1           0        2.063819   -2.041866   -0.746122
     25          1           0        0.810855   -1.137330   -1.587177
     26          1           0        0.169349   -2.112257    1.217574
     27          1           0        0.400025   -3.349374    0.022264
     28          1           0       -1.950456   -2.882629    0.261589
     29          1           0       -1.399903   -2.568661   -1.375643
     30          1           0       -1.511232   -0.157283   -1.026980
     31          1           0       -3.820967   -1.619321   -0.411070
     32          1           0       -2.525711   -0.850683    1.776437
     33          1           0       -2.952565    0.615607    0.909898
     34          1           0       -0.209290   -0.173965    2.012088
     35          1           0       -1.189132    1.236238    2.378999
 ---------------------------------------------------------------------

 SCF Done:  E(RB3LYP) =  -633.199983693     A.U. after    1 cycles

 The electronic state is 1-A.
 Alpha  occ. eigenvalues --  -19.13041 -14.30886 -14.30833 -14.29551 -10.22772
 Alpha  occ. eigenvalues --  -10.22145 -10.20556 -10.20291 -10.19669 -10.19157
 Alpha  occ. eigenvalues --  -10.18796 -10.18062 -10.17953 -10.17176  -1.01271
 Alpha  occ. eigenvalues --   -0.92116  -0.87796  -0.86105  -0.79851  -0.78848
 Alpha  occ. eigenvalues --   -0.73148  -0.70965  -0.66628  -0.64906  -0.61164
 Alpha  occ. eigenvalues --   -0.59098  -0.56740  -0.52408  -0.49611  -0.49330
 Alpha  occ. eigenvalues --   -0.47798  -0.47475  -0.45588  -0.44570  -0.44187
 Alpha  occ. eigenvalues --   -0.42699  -0.42246  -0.40915  -0.40586  -0.39274
 Alpha  occ. eigenvalues --   -0.38838  -0.38021  -0.36304  -0.35922  -0.35612
 Alpha  occ. eigenvalues --   -0.35165  -0.33823  -0.31686  -0.31314  -0.30620
 Alpha  occ. eigenvalues --   -0.27656  -0.26153  -0.23847  -0.23337  -0.22898
 Alpha virt. eigenvalues --    0.00685   0.07298   0.08275   0.08337   0.08530
 Alpha virt. eigenvalues --    0.10079   0.11383   0.12436   0.13665   0.13790
 Alpha virt. eigenvalues --    0.15012   0.15152   0.15477   0.16480   0.17161

 Mulliken charges:
               1
     1  N   -0.496061
     2  C   -0.227058
     3  C    0.274311
     4  N   -0.240944
     5  C    0.043187
     6  C   -0.166423
     7  N   -0.511335
     8  C   -0.190651
     9  C   -0.222305
    10  C   -0.205838
    11  C    0.128878
    12  O   -0.435012
    13  C   -0.221088
    14  C   -0.303585
    15  H    0.225719
    16  H    0.229333
    17  H    0.119867
    18  H    0.114362
    19  H    0.058859
    20  H    0.080152
    21  H    0.106277
    22  H    0.222832
    23  H    0.229060
    24  H    0.124627
    25  H    0.096564
    26  H    0.093297
    27  H    0.099580
    28  H    0.076499
    29  H    0.107515
    30  H    0.094936
    31  H    0.272874
    32  H    0.088288
    33  H    0.116610
    34  H    0.111265
    35  H    0.105409
 Sum of Mulliken charges =  -0.00000

 Dipole moment (field-independent basis, Debye):
    X=              0.8716    Y=             -1.8737    Z=              2.5033  Tot=              3.2461
 Quadrupole moment (field-independent basis, Debye-Ang):
   XX=            -80.1536   YY=            -96.1987   ZZ=            -85.0533
   XY=              5.6130   XZ=             -3.4749   YZ=              1.4276

  Exact polarizability: 150.328  -4.064 133.597  -6.320   0.561 111.794
 Approx polarizability: 201.267  -7.543 182.940 -11.275  -0.959 182.196

                      1                      2                      3
                      A                      A                      A
 Frequencies --     53.2425                73.9291                93.1572
 Red. masses --      3.2789                 3.0030                 2.1455
 Frc consts  --      0.0055                 0.0097                 0.0110
 IR Inten    --      0.6358                 2.2632                 2.8545

                      4                      5                      6
                      A                      A                      A
 Frequencies --    102.1500               117.8389               149.0889
 Red. masses --      2.9592                 3.1941                 3.2702
 Frc consts  --      0.0182                 0.0261                 0.0428
 IR Inten    --      2.1431                 3.5961                 3.4429

                      7                      8                      9
                      A                      A                      A
 Frequencies --    164.7504               182.2870               191.8196
 Red. masses --      2.2115                 2.3208                 1.6480
 Frc consts  --      0.0354                 0.0454                 0.0357
 IR Inten    --      2.8564                14.1233                21.8536

                     10                     11                     12
                      A                      A                      A
 Frequencies --    227.6531               237.8285               268.0570
 Red. masses --      1.2679                 3.0180                 1.6794
 Frc consts  --      0.0387                 0.1006                 0.0711
 IR Inten    --     28.0942                 4.8927                24.6747

                     13                     14                     15
                      A                      A                      A
 Frequencies --    282.7424               291.7558               301.2610
 Red. masses --      2.1317                 1.6825                 2.1945
 Frc consts  --      0.1004                 0.0844                 0.1173
 IR Inten    --      9.5353                37.6074                13.8471

                     16                     17                     18
                      A                      A                      A
 Frequencies --    361.8929               397.7222               421.1151
 Red. masses --      2.3204                 2.3369                 3.2135
 Frc consts  --      0.1790                 0.2178                 0.3358
 IR Inten    --     19.9386                 4.5523                 5.8276

                     19                     20                     21
                      A                      A                      A
 Frequencies --    435.9255               447.5735               477.1383
 Red. masses --      2.4709                 3.7349                 3.6525
 Frc consts  --      0.2766                 0.4408                 0.4899
 IR Inten    --      5.6198                 1.8123                 8.8003

                     22                     23                     24
                      A                      A                      A
 Frequencies --    508.6119               515.0841               597.9838
 Red. masses --      2.6327                 3.3739                 3.1729
 Frc consts  --      0.4013                 0.5274                 0.6685
 IR Inten    --     11.3834                 1.1448                 1.5066

                     25                     26                     27
                      A                      A                      A
 Frequencies --    647.0106               720.4878               748.4427
 Red. masses --      2.6020                 1.9215                 2.0773
 Frc consts  --      0.6418                 0.5877                 0.6856
 IR Inten    --      2.1728                 2.2665                 8.1090

                     28                     29                     30
                      A                      A                      A
 Frequencies --    817.8053               834.8713               847.6822
 Red. masses --      1.9404                 1.6291                 1.5305
 Frc consts  --      0.7646                 0.6690                 0.6479
 IR Inten    --      2.1497                59.2741                69.7166

                     31                     32                     33
                      A                      A                      A
 Frequencies --    888.0447               911.2640               930.3440
 Red. masses --      1.9524                 1.7316                 2.1663
 Frc consts  --      0.9072                 0.8472                 1.1047
 IR Inten    --      4.1159                 1.8176                12.2734

                     34                     35                     36
                      A                      A                      A
 Frequencies --    941.4902               957.4987               970.5620
 Red. masses --      2.2111                 1.7846                 1.6563
 Frc consts  --      1.1548                 0.9640                 0.9193
 IR Inten    --     37.2321               129.7492                59.6162

                     37                     38                     39
                      A                      A                      A
 Frequencies --   1001.4711              1013.3276              1034.3325
 Red. masses --      2.3964                 2.2683                 2.1112
 Frc consts  --      1.4161                 1.3723                 1.3307
 IR Inten    --     35.9681                 3.1901                27.1183

                     40                     41                     42
                      A                      A                      A
 Frequencies --   1043.3268              1058.6298              1087.7151
 Red. masses --      2.7673                 2.3612                 2.8160
 Frc consts  --      1.7748                 1.5591                 1.9630
 IR Inten    --     45.5777                25.3925                 7.6747

                     43                     44                     45
                      A                      A                      A
 Frequencies --   1092.6669              1100.0170              1124.9168
 Red. masses --      2.6121                 2.0034                 2.2546
 Frc consts  --      1.8374                 1.4283                 1.6810
 IR Inten    --     18.2870                 4.9450                 1.6722

                     46                     47                     48
                      A                      A                      A
 Frequencies --   1146.7822              1159.1587              1171.8711
 Red. masses --      2.3447                 1.5997                 1.8084
 Frc consts  --      1.8168                 1.2664                 1.4632
 IR Inten    --     10.4988                 0.9671                10.2902

                     49                     50                     51
                      A                      A                      A
 Frequencies --   1177.3088              1210.9898              1216.5406
 Red. masses --      1.3354                 1.2725                 1.4541
 Frc consts  --      1.0905                 1.0995                 1.2679
 IR Inten    --     10.7399                13.9554                 5.4199

                     52                     53                     54
                      A                      A                      A
 Frequencies --   1243.4807              1253.3345              1268.7492
 Red. masses --      1.3838                 1.3055                 1.2963
 Frc consts  --      1.2606                 1.2083                 1.2294
 IR Inten    --     10.2410                10.9280                 4.4163

                     55                     56                     57
                      A                      A                      A
 Frequencies --   1308.9879              1323.6497              1330.1757
 Red. masses --      1.1806                 1.2216                 1.3096
 Frc consts  --      1.1919                 1.2610                 1.3653
 IR Inten    --      7.4127                14.6558                 0.3181

                     58                     59                     60
                      A                      A                      A
 Frequencies --   1347.9531              1348.2909              1357.2506
 Red. masses --      1.2473                 1.2325                 1.3414
 Frc consts  --      1.3353                 1.3201                 1.4559
 IR Inten    --      1.2629                 1.8704                 9.7122

                     61                     62                     63
                      A                      A                      A
 Frequencies --   1363.8923              1376.7241              1389.1669
 Red. masses --      1.3754                 1.4463                 1.3107
 Frc consts  --      1.5074                 1.6151                 1.4903
 IR Inten    --      3.8899                 2.3204                 8.3237

                     64                     65                     66
                      A                      A                      A
 Frequencies --   1393.1100              1400.1403              1406.1729
 Red. masses --      1.4023                 1.3009                 1.3623
 Frc consts  --      1.6035                 1.5025                 1.5871
 IR Inten    --     26.7551                 5.3612                 2.9638

                     67                     68                     69
                      A                      A                      A
 Frequencies --   1417.3049              1431.2397              1466.7888
 Red. masses --      1.4525                 1.2279                 1.0946
 Frc consts  --      1.7190                 1.4819                 1.3875
 IR Inten    --      1.8755                31.3490                 6.1543

                     70                     71                     72
                      A                      A                      A
 Frequencies --   1476.6267              1483.6361              1487.3459
 Red. masses --      1.0835                 1.0905                 1.0909
 Frc consts  --      1.3920                 1.4142                 1.4219
 IR Inten    --      0.1270                 1.2090                 6.6708

                     73                     74                     75
                      A                      A                      A
 Frequencies --   1492.6892              1504.6707              1510.2230
 Red. masses --      1.0841                 1.0855                 1.0911
 Frc consts  --      1.4232                 1.4480                 1.4662
 IR Inten    --      2.2009                 1.4658                13.1593

                     76                     77                     78
                      A                      A                      A
 Frequencies --   1658.1179              1681.2310              1744.9823
 Red. masses --      1.0899                 1.0792                 9.9960
 Frc consts  --      1.7655                 1.7972                17.9332
 IR Inten    --     24.1690                16.7442                97.2074

                     79                     80                     81
                      A                      A                      A
 Frequencies --   2945.6115              2972.9700              2985.9312
 Red. masses --      1.0807                 1.0701                 1.0677
 Frc consts  --      5.5249                 5.5726                 5.6089
 IR Inten    --     37.6060                59.8203                31.5322

                     82                     83                     84
                      A                      A                      A
 Frequencies --   2986.7678              3016.9235              3031.4003
 Red. masses --      1.0704                 1.0652                 1.0618
 Frc consts  --      5.6259                 5.7124                 5.7487
 IR Inten    --     27.4944                19.9573                30.1602

                     85                     86                     87
                      A                      A                      A
 Frequencies --   3032.1118              3036.2311              3044.0482
 Red. masses --      1.0655                 1.0699                 1.0916
 Frc consts  --      5.7714                 5.8113                 5.9594
 IR Inten    --     10.1772                34.9233                 1.9986

                     88                     89                     90
                      A                      A                      A
 Frequencies --   3050.1328              3058.1575              3060.1428
 Red. masses --      1.0897                 1.0885                 1.0918
 Frc consts  --      5.9729                 5.9978                 6.0242
 IR Inten    --     15.9364                29.2811                26.6917

                     91                     92                     93
                      A                      A                      A
 Frequencies --   3068.2539              3075.8768              3091.2712
 Red. masses --      1.0953                 1.0960                 1.0978
 Frc consts  --      6.0751                 6.1093                 6.1807
 IR Inten    --     68.5467                18.8529                12.2403

                     94                     95                     96
                      A                      A                      A
 Frequencies --   3114.0825              3479.2764              3491.1180
 Red. masses --      1.0927                 1.0501                 1.0503
 Frc consts  --      6.2432                 7.4897                 7.5420
 IR Inten    --     30.2023                 1.1101                 0.3982

                     97                     98                     99
                      A                      A                      A
 Frequencies --   3542.5164              3571.3153              3795.3069
 Red. masses --      1.0892                 1.0913                 1.0659
 Frc consts  --      8.0535                 8.2006                 9.0458
 IR Inten    --      2.3684                 0.2014                13.4402

 - Thermochemistry -
 -------------------
 Temperature   298.150 Kelvin.  Pressure   1.00000 Atm.
 Atom     1 has atomic number  7 and mass  14.00307

 Molecular mass:   199.16846 amu.
 Principal axes and moments of inertia in atomic units:
                           1         2         3
     Eigenvalues --  2379.306713427.785474991.30863
           X            0.99993  -0.00646  -0.00945
           Y            0.00644   0.99998  -0.00175
           Z            0.00946   0.00169   0.99995
 This molecule is an asymmetric top.
 Rotational symmetry number  1.
 Warning -- assumption of classical behavior for rotation
           may cause significant error
 Rotational temperatures (Kelvin)      0.03640     0.02527     0.01735
 Rotational constants (GHZ):           0.75852     0.52650     0.36158
 Zero-point vibrational energy     829434.1 (Joules/Mol)
                                  198.23950 (Kcal/Mol)
 Warning -- explicit consideration of  24 degrees of freedom as
           vibrations may cause significant error
 Vibrational temperatures:     76.60   106.37   134.03   146.97   169.54
          (Kelvin)            214.51   237.04   262.27   275.99   327.54
                              342.18   385.67   406.80   419.77   433.45
                              520.68   572.23   605.89   627.20   643.96
                              686.50   731.78   741.09   860.37   930.90
                             1036.62  1076.84  1176.64  1201.19  1219.63
                             1277.70  1311.11  1338.56  1354.59  1377.63
                             1396.42  1440.89  1457.95  1488.17  1501.11
                             1523.13  1564.98  1572.10  1582.68  1618.50
                             1649.96  1667.77  1686.06  1693.88  1742.34
                             1750.33  1789.09  1803.27  1825.45  1883.34
                             1904.44  1913.83  1939.40  1939.89  1952.78
                             1962.34  1980.80  1998.70  2004.37  2014.49
                             2023.17  2039.19  2059.23  2110.38  2124.54
                             2134.62  2139.96  2147.65  2164.89  2172.87
                             2385.66  2418.92  2510.64  4238.08  4277.44
                             4296.09  4297.29  4340.68  4361.51  4362.53
                             4368.46  4379.71  4388.46  4400.01  4402.86
                             4414.53  4425.50  4447.65  4480.47  5005.90
                             5022.94  5096.89  5138.33  5460.60

 Zero-point correction=                           0.315915 (Hartree/Particle)
 Thermal correction to Energy=                    0.331471
 Thermal correction to Enthalpy=                  0.332415
 Thermal correction to Gibbs Free Energy=         0.274069
 Sum of electronic and zero-point Energies=           -632.884069
 Sum of electronic and thermal Energies=              -632.868512
 Sum of electronic and thermal Enthalpies=            -632.867568
 Sum of electronic and thermal Free Energies=         -632.925915

                     E (Thermal)             CV                S
                      KCal/Mol        Cal/Mol-Kelvin    Cal/Mol-Kelvin
 Total                  208.001             59.595            122.801
 Electronic               0.000              0.000              0.000
 Translational            0.889              2.981             41.772
 Rotational               0.889              2.981             32.076
 Vibrational            206.224             53.634             48.953
 Vibration     1          0.596              1.976              4.693
 Vibration     2          0.599              1.966              4.046
 Vibration     3          0.602              1.954              3.593
 Vibration     4          0.604              1.947              3.413
 Vibration     5          0.608              1.935              3.136
 Vibration     6          0.618              1.904              2.684
 Vibration     7          0.623              1.886              2.495
 Vibration     8          0.630              1.864              2.305
 Vibration     9          0.634              1.851              2.210
 Vibration    10          0.651              1.799              1.897
 Vibration    11          0.656              1.783              1.819
 Vibration    12          0.673              1.732              1.609
 Vibration    13          0.682              1.706              1.517
 Vibration    14          0.687              1.689              1.464
 Vibration    15          0.693              1.671              1.410
 Vibration    16          0.736              1.551              1.114
 Vibration    17          0.764              1.475              0.971
 Vibration    18          0.784              1.424              0.888
 Vibration    19          0.796              1.392              0.840
 Vibration    20          0.807              1.366              0.803
 Vibration    21          0.834              1.301              0.718
 Vibration    22          0.864              1.231              0.637
 Vibration    23          0.870              1.217              0.621
 Vibration    24          0.956              1.036              0.453

                           ! Non-Optimized Parameters !
 Normal termination of Gaussian 16 at Mon May 29 00:29:06 2023.
