 Gaussian 16, Revision A.03,
 Gaussian 16:  ES64L-G16RevA.03 25-Dec-2016

 -----------------------------
 # opt freq b3lyp/6-31g(2df,p)
 -----------------------------

 -------------------
 Title Card Required
 -------------------
 Symbolic Z-matrix:
 Charge =  0 Multiplicity = 1

 SCF Done:  E(RB3LYP) =  -650.153925275     A.U. after   19 cycles
 SCF Done:  E(RB3LYP) =  -650.230299139     A.U. after   17 cycles
 SCF Done:  E(RB3LYP) =  -650.302512829     A.U. after   15 cycles
 SCF Done:  E(RB3LYP) =  -650.343293194     A.U. after   15 cycles
 SCF Done:  E(RB3LYP) =  -650.364255848     A.U. after   16 cycles
 SCF Done:  E(RB3LYP) =  -650.383969874     A.U. after   15 cycles
 SCF Done:  E(RB3LYP) =  -650.408146521     A.U. after   15 cycles
 SCF Done:  E(RB3LYP) =  -650.426592775     A.U. after   15 cycles
 SCF Done:  E(RB3LYP) =  -650.444882458     A.U. after   13 cycles
 SCF Done:  E(RB3LYP) =  -650.469489888     A.U. after   14 cycles
 SCF Done:  E(RB3LYP) =  -650.509636604     A.U. after   10 cycles
 SCF Done:  E(RB3LYP) =  -650.509678194     A.U. after   10 cycles
 SCF Done:  E(RB3LYP) =  -650.509685480     A.U. after    8 cycles
 SCF Done:  E(RB3LYP) =  -650.509689877     A.U. after    8 cycles
 SCF Done:  E(RB3LYP) =  -650.509691318     A.U. after    8 cycles
 SCF Done:  E(RB3LYP) =  -650.509691643     A.U. after    7 cycles
 SCF Done:  E(RB3LYP) =  -650.509691843     A.U. after    7 cycles
 SCF Done:  E(RB3LYP) =  -650.509691944     A.U. after    6 cycles
 SCF Done:  E(RB3LYP) =  -650.509691997     A.U. after    6 cycles
 Optimization completed.
    -- Stationary point found.
 Normal termination of Gaussian 16 at Sun May 28 18:33:16 2023.

 ----------------------------------------------------------------------
 #N Geom=AllCheck Guess=TCheck SCRF=Check GenChk RB3LYP/6-31G(2df,p) Fr
 eq
 ----------------------------------------------------------------------

 Structure from the checkpoint file:  "NCCC1dC2CNCqdOrOCCC1C2.chk"
 -------------------
 Title Card Required
 -------------------
 Charge =  0 Multiplicity = 1

                         Standard orientation:
 ---------------------------------------------------------------------
 Center     Atomic      Atomic             Coordinates (Angstroms)
 Number     Number       Type             X           Y           Z
 ---------------------------------------------------------------------
      1          7           0        3.991505   -0.600434   -0.451303
      2          6           0        2.566681   -0.620906   -0.112174
      3          6           0        2.172421    0.713666    0.540395
      4          6           0        0.750554    0.820882    0.955431
      5          6           0       -0.226009    1.775466    0.769520
      6          6           0       -0.721169    2.186925   -0.613066
      7          7           0       -1.611770    1.061039   -1.112237
      8          6           0       -1.084974   -0.198627   -1.398457
      9          8           0       -0.113902   -0.348127   -2.101226
     10          8           0       -1.795685   -1.328737   -0.958329
     11          6           0       -2.007120   -1.762292    0.422337
     12          6           0       -0.779941   -1.680213    1.412916
     13          6           0       -0.361974   -0.219032    1.244367
     14          6           0       -1.248797    0.993421    1.607520
     15          1           0        4.219925   -1.406315   -1.024398
     16          1           0        4.553114   -0.683955    0.391656
     17          1           0        2.281586   -1.447221    0.562635
     18          1           0        1.992482   -0.748462   -1.033977
     19          1           0        2.421525    1.541281   -0.135238
     20          1           0        2.806020    0.859892    1.430702
     21          1           0        0.090279    2.311780   -1.330368
     22          1           0       -1.348675    3.080729   -0.626698
     23          1           0       -2.491224    1.019755   -0.618851
     24          1           0       -2.335477   -2.797165    0.306509
     25          1           0       -2.836984   -1.191016    0.854579
     26          1           0        0.007082   -2.369929    1.094715
     27          1           0       -1.130408   -1.984503    2.405758
     28          1           0       -0.483912   -0.267700    0.174987
     29          1           0       -1.180108    1.237827    2.669871
     30          1           0       -2.304704    0.979939    1.326601
 ---------------------------------------------------------------------

 SCF Done:  E(RB3LYP) =  -650.509691997     A.U. after    1 cycles

 The electronic state is 1-A.
 Alpha  occ. eigenvalues --  -19.16307 -19.11129 -14.35479 -14.30414 -10.32604
 Alpha  occ. eigenvalues --  -10.25434 -10.23658 -10.21167 -10.20548 -10.20474
 Alpha  occ. eigenvalues --  -10.20056 -10.18914 -10.18676 -10.17845  -1.07970
 Alpha  occ. eigenvalues --   -1.00184  -0.92358  -0.87978  -0.87070  -0.78131
 Alpha  occ. eigenvalues --   -0.75072  -0.72921  -0.66694  -0.65075  -0.61107
 Alpha  occ. eigenvalues --   -0.59280  -0.57181  -0.53651  -0.51954  -0.49750
 Alpha  occ. eigenvalues --   -0.48429  -0.47617  -0.45746  -0.44926  -0.44320
 Alpha  occ. eigenvalues --   -0.43191  -0.42287  -0.41443  -0.40989  -0.40466
 Alpha  occ. eigenvalues --   -0.40033  -0.38176  -0.35036  -0.34701  -0.33492
 Alpha  occ. eigenvalues --   -0.32460  -0.32259  -0.30624  -0.29562  -0.26772
 Alpha  occ. eigenvalues --   -0.25887  -0.23343  -0.19950
 Alpha virt. eigenvalues --   -0.02594   0.01704   0.05940   0.08090   0.09644
 Alpha virt. eigenvalues --    0.10096   0.11139   0.11465   0.12297   0.13644
 Alpha virt. eigenvalues --    0.13939   0.14808   0.14907   0.16093   0.16782

 Mulliken charges:
               1
     1  N   -0.506727
     2  C   -0.188250
     3  C   -0.294842
     4  C    0.173832
     5  C   -0.027276
     6  C   -0.234547
     7  N   -0.325787
     8  C    0.398521
     9  O   -0.337726
    10  O   -0.299919
    11  C   -0.065244
    12  C   -0.357077
    13  C    0.062321
    14  C   -0.307773
    15  H    0.229496
    16  H    0.220233
    17  H    0.078124
    18  H    0.157758
    19  H    0.123620
    20  H    0.109872
    21  H    0.150809
    22  H    0.121061
    23  H    0.245408
    24  H    0.128785
    25  H    0.110136
    26  H    0.128175
    27  H    0.109308
    28  H    0.216190
    29  H    0.110011
    30  H    0.071509
 Sum of Mulliken charges =  -0.00000

 Dipole moment (field-independent basis, Debye):
    X=             -1.2269    Y=             -0.7170    Z=              3.6740  Tot=              3.9392
 Quadrupole moment (field-independent basis, Debye-Ang):
   XX=            -76.6396   YY=            -80.4157   ZZ=            -90.7020
   XY=             -5.5271   XZ=              0.2533   YZ=             -4.3564

  Exact polarizability: 138.393  -2.931 124.891  -4.897  -3.365 111.927
 Approx polarizability: 207.514 -12.616 198.468  -5.718  -2.253 184.835

                      1                      2                      3
                      A                      A                      A
 Frequencies --     63.1766                73.1983                91.9654
 Red. masses --      3.4295                 4.7085                 2.4677
 Frc consts  --      0.0081                 0.0149                 0.0123
 IR Inten    --      1.0650                 2.0913                 2.3389

                      4                      5                      6
                      A                      A                      A
 Frequencies --    122.2646               134.8432               184.6568
 Red. masses --      3.1725                 5.1353                 3.4839
 Frc consts  --      0.0279                 0.0550                 0.0700
 IR Inten    --      1.9825                 6.6120                 1.3324

                      7                      8                      9
                      A                      A                      A
 Frequencies --    195.1159               231.0832               248.0769
 Red. masses --      2.8486                 2.4350                 1.2572
 Frc consts  --      0.0639                 0.0766                 0.0456
 IR Inten    --      7.6697                 4.6014                22.4254

                     10                     11                     12
                      A                      A                      A
 Frequencies --    280.6456               295.7455               366.6069
 Red. masses --      2.8406                 2.3293                 3.3489
 Frc consts  --      0.1318                 0.1200                 0.2652
 IR Inten    --      1.9884                 5.1502                 8.3737

                     13                     14                     15
                      A                      A                      A
 Frequencies --    389.0693               425.5581               447.1981
 Red. masses --      3.8618                 5.6080                 3.0687
 Frc consts  --      0.3444                 0.5984                 0.3616
 IR Inten    --      0.3442                 2.7775                 5.6337

                     16                     17                     18
                      A                      A                      A
 Frequencies --    450.9256               514.0202               540.2334
 Red. masses --      3.1821                 3.8352                 3.9893
 Frc consts  --      0.3812                 0.5970                 0.6860
 IR Inten    --      6.6925                 3.1376                15.0330

                     19                     20                     21
                      A                      A                      A
 Frequencies --    577.2098               623.2248               651.3857
 Red. masses --      4.9026                 2.7073                 3.0343
 Frc consts  --      0.9624                 0.6196                 0.7586
 IR Inten    --      1.8955                41.1426                 7.3226

                     22                     23                     24
                      A                      A                      A
 Frequencies --    679.3560               703.4235               739.0105
 Red. masses --      1.9440                 2.5901                 3.7480
 Frc consts  --      0.5286                 0.7551                 1.2060
 IR Inten    --     80.8310                31.5554               109.2991

                     25                     26                     27
                      A                      A                      A
 Frequencies --    774.8788               798.1857               803.1002
 Red. masses --      1.5199                 2.6795                 2.2966
 Frc consts  --      0.5377                 1.0058                 0.8727
 IR Inten    --      5.2063                 5.8285                14.7988

                     28                     29                     30
                      A                      A                      A
 Frequencies --    836.9303               857.5694               859.3824
 Red. masses --      1.8207                 1.5816                 1.9549
 Frc consts  --      0.7514                 0.6853                 0.8506
 IR Inten    --     40.6914               137.4443                 8.1681

                     31                     32                     33
                      A                      A                      A
 Frequencies --    904.5172               926.2417               955.2328
 Red. masses --      3.4186                 2.3283                 2.1609
 Frc consts  --      1.6479                 1.1769                 1.1617
 IR Inten    --     11.6428                 3.1803                 3.9681

                     34                     35                     36
                      A                      A                      A
 Frequencies --    966.8346               973.8417              1009.2804
 Red. masses --      3.2712                 2.0682                 3.2149
 Frc consts  --      1.8016                 1.1556                 1.9295
 IR Inten    --     74.6232                 5.2427               106.7394

                     37                     38                     39
                      A                      A                      A
 Frequencies --   1032.5056              1063.3425              1088.9400
 Red. masses --      1.7301                 2.2707                 2.5962
 Frc consts  --      1.0867                 1.5127                 1.8139
 IR Inten    --      9.8592                33.2634                10.6807

                     40                     41                     42
                      A                      A                      A
 Frequencies --   1091.3166              1102.6567              1112.0257
 Red. masses --      2.7140                 3.1936                 2.0397
 Frc consts  --      1.9044                 2.2878                 1.4861
 IR Inten    --     26.5651               135.9441                 7.4059

                     43                     44                     45
                      A                      A                      A
 Frequencies --   1138.8905              1159.2418              1161.4507
 Red. masses --      1.3162                 1.4120                 1.5532
 Frc consts  --      1.0059                 1.1179                 1.2345
 IR Inten    --      4.0685                28.3254                 9.6084

                     46                     47                     48
                      A                      A                      A
 Frequencies --   1184.6641              1226.7635              1239.8713
 Red. masses --      1.6500                 1.6668                 1.3254
 Frc consts  --      1.3644                 1.4779                 1.2005
 IR Inten    --     23.3803                23.3431                 2.6994

                     49                     50                     51
                      A                      A                      A
 Frequencies --   1256.5010              1264.7120              1281.2878
 Red. masses --      1.5272                 1.7585                 1.6168
 Frc consts  --      1.4206                 1.6572                 1.5639
 IR Inten    --      0.3908                 0.6179                10.1478

                     52                     53                     54
                      A                      A                      A
 Frequencies --   1310.5940              1313.8152              1324.1225
 Red. masses --      1.2517                 1.2919                 1.1876
 Frc consts  --      1.2667                 1.3138                 1.2268
 IR Inten    --      1.5387                 5.5054                14.4222

                     55                     56                     57
                      A                      A                      A
 Frequencies --   1349.5896              1388.0023              1430.9093
 Red. masses --      1.2465                 1.2121                 1.3747
 Frc consts  --      1.3376                 1.3759                 1.6584
 IR Inten    --      4.9305                 1.7305                 3.2593

                     58                     59                     60
                      A                      A                      A
 Frequencies --   1448.2340              1465.3887              1466.0795
 Red. masses --      1.2582                 1.0927                 1.0930
 Frc consts  --      1.5548                 1.3825                 1.3841
 IR Inten    --     66.1526                 1.5373                 0.2193

                     61                     62                     63
                      A                      A                      A
 Frequencies --   1482.8916              1496.2786              1514.7187
 Red. masses --      1.1454                 1.0902                 1.1622
 Frc consts  --      1.4840                 1.4381                 1.5711
 IR Inten    --     23.5014                 3.4161                 5.8766

                     64                     65                     66
                      A                      A                      A
 Frequencies --   1522.7709              1561.2164              1639.0750
 Red. masses --      1.0840                 3.9697                 1.1647
 Frc consts  --      1.4810                 5.7008                 1.8436
 IR Inten    --      0.8332                35.3796                 6.7005

                     67                     68                     69
                      A                      A                      A
 Frequencies --   1658.5247              1783.5092              2940.3748
 Red. masses --      1.0905                 9.2571                 1.0721
 Frc consts  --      1.7673                17.3490                 5.4610
 IR Inten    --     17.5563               288.3190                70.9476

                     70                     71                     72
                      A                      A                      A
 Frequencies --   2974.8095              3032.9241              3041.3764
 Red. masses --      1.0698                 1.0666                 1.0600
 Frc consts  --      5.5777                 5.7804                 5.7771
 IR Inten    --     24.4798                18.1936                31.1875

                     73                     74                     75
                      A                      A                      A
 Frequencies --   3051.5671              3061.5989              3075.3603
 Red. masses --      1.0871                 1.0584                 1.0626
 Frc consts  --      5.9644                 5.8453                 5.9215
 IR Inten    --     15.8648                56.9637                55.2213

                     76                     77                     78
                      A                      A                      A
 Frequencies --   3099.5589              3100.1251              3103.2401
 Red. masses --      1.0906                 1.1004                 1.1047
 Frc consts  --      6.1733                 6.2308                 6.2680
 IR Inten    --      5.8298                12.6356                28.2843

                     79                     80                     81
                      A                      A                      A
 Frequencies --   3115.3430              3144.7848              3173.1078
 Red. masses --      1.1011                 1.1040                 1.0730
 Frc consts  --      6.2963                 6.4327                 6.3656
 IR Inten    --     23.2717                 5.6410                39.1470

                     82                     83                     84
                      A                      A                      A
 Frequencies --   3488.3718              3569.8452              3607.9292
 Red. masses --      1.0500                 1.0915                 1.0745
 Frc consts  --      7.5281                 8.1957                 8.2408
 IR Inten    --      0.8203                 0.2422                 7.0388

 - Thermochemistry -
 -------------------
 Temperature   298.150 Kelvin.  Pressure   1.00000 Atm.
 Atom     1 has atomic number  7 and mass  14.00307

 Molecular mass:   196.12118 amu.
 Principal axes and moments of inertia in atomic units:
                           1         2         3
     Eigenvalues --  1961.642283198.862853353.45944
           X            0.99957  -0.02095  -0.02070
           Y            0.01668   0.98193  -0.18850
           Z            0.02427   0.18807   0.98186
 This molecule is an asymmetric top.
 Rotational symmetry number  1.
 Warning -- assumption of classical behavior for rotation
           may cause significant error
 Rotational temperatures (Kelvin)      0.04415     0.02708     0.02583
 Rotational constants (GHZ):           0.92002     0.56418     0.53817
 Zero-point vibrational energy     674898.4 (Joules/Mol)
                                  161.30458 (Kcal/Mol)
 Warning -- explicit consideration of  19 degrees of freedom as
           vibrations may cause significant error
 Vibrational temperatures:     90.90   105.32   132.32   175.91   194.01
          (Kelvin)            265.68   280.73   332.48   356.93   403.79
                              425.51   527.47   559.78   612.28   643.42
                              648.78   739.56   777.28   830.48   896.68
                              937.20   977.44  1012.07  1063.27  1114.88
                             1148.41  1155.48  1204.16  1233.85  1236.46
                             1301.40  1332.66  1374.37  1391.06  1401.14
                             1452.13  1485.55  1529.91  1566.74  1570.16
                             1586.48  1599.96  1638.61  1667.89  1671.07
                             1704.47  1765.04  1783.90  1807.82  1819.64
                             1843.49  1885.65  1890.29  1905.12  1941.76
                             1997.03  2058.76  2083.69  2108.37  2109.36
                             2133.55  2152.81  2179.34  2190.93  2246.24
                             2358.26  2386.25  2566.07  4230.54  4280.09
                             4363.70  4375.86  4390.52  4404.96  4424.76
                             4459.57  4460.39  4464.87  4482.28  4524.64
                             4565.39  5018.99  5136.21  5191.01

 Zero-point correction=                           0.257055 (Hartree/Particle)
 Thermal correction to Energy=                    0.270406
 Thermal correction to Enthalpy=                  0.271350
 Thermal correction to Gibbs Free Energy=         0.217692
 Sum of electronic and zero-point Energies=           -650.252637
 Sum of electronic and thermal Energies=              -650.239286
 Sum of electronic and thermal Enthalpies=            -650.238342
 Sum of electronic and thermal Free Energies=         -650.292000

                     E (Thermal)             CV                S
                      KCal/Mol        Cal/Mol-Kelvin    Cal/Mol-Kelvin
 Total                  169.682             52.689            112.934
 Electronic               0.000              0.000              0.000
 Translational            0.889              2.981             41.726
 Rotational               0.889              2.981             31.421
 Vibrational            167.905             46.727             39.788
 Vibration     1          0.597              1.972              4.355
 Vibration     2          0.599              1.967              4.065
 Vibration     3          0.602              1.955              3.618
 Vibration     4          0.610              1.931              3.064
 Vibration     5          0.613              1.919              2.876
 Vibration     6          0.631              1.861              2.281
 Vibration     7          0.636              1.847              2.179
 Vibration     8          0.653              1.793              1.871
 Vibration     9          0.662              1.766              1.744
 Vibration    10          0.680              1.709              1.530
 Vibration    11          0.690              1.682              1.441
 Vibration    12          0.740              1.541              1.094
 Vibration    13          0.757              1.494              1.004
 Vibration    14          0.787              1.415              0.873
 Vibration    15          0.806              1.367              0.804
 Vibration    16          0.810              1.359              0.793
 Vibration    17          0.869              1.219              0.624
 Vibration    18          0.895              1.161              0.565
 Vibration    19          0.934              1.081              0.491

 Optimization completed.
    -- Stationary point found.
 Normal termination of Gaussian 16 at Sun May 28 20:44:17 2023.
