 Gaussian 16, Revision A.03,
 Gaussian 16:  ES64L-G16RevA.03 25-Dec-2016

 -----------------------------
 # opt freq b3lyp/6-31g(2df,p)
 -----------------------------

 -------------------
 Title Card Required
 -------------------
 Symbolic Z-matrix:
 Charge =  0 Multiplicity = 1

 SCF Done:  E(RB3LYP) =  -497.328855145     A.U. after   18 cycles
 SCF Done:  E(RB3LYP) =  -497.414427000     A.U. after   15 cycles
 SCF Done:  E(RB3LYP) =  -497.505473755     A.U. after   14 cycles
 SCF Done:  E(RB3LYP) =  -497.564961602     A.U. after   13 cycles
 SCF Done:  E(RB3LYP) =  -497.600227729     A.U. after   13 cycles
 SCF Done:  E(RB3LYP) =  -497.614182065     A.U. after   13 cycles
 SCF Done:  E(RB3LYP) =  -497.617363281     A.U. after   13 cycles
 SCF Done:  E(RB3LYP) =  -497.618493686     A.U. after   13 cycles
 SCF Done:  E(RB3LYP) =  -497.619398649     A.U. after   12 cycles
 SCF Done:  E(RB3LYP) =  -497.619905521     A.U. after   12 cycles
 SCF Done:  E(RB3LYP) =  -497.620043086     A.U. after   13 cycles
 SCF Done:  E(RB3LYP) =  -497.620565536     A.U. after   12 cycles
 SCF Done:  E(RB3LYP) =  -497.620814706     A.U. after   12 cycles
 SCF Done:  E(RB3LYP) =  -497.620952500     A.U. after   12 cycles
 SCF Done:  E(RB3LYP) =  -497.620989991     A.U. after   10 cycles
 SCF Done:  E(RB3LYP) =  -497.620997575     A.U. after    9 cycles
 SCF Done:  E(RB3LYP) =  -497.620999146     A.U. after    8 cycles
 SCF Done:  E(RB3LYP) =  -497.620999642     A.U. after    7 cycles
 SCF Done:  E(RB3LYP) =  -497.620999809     A.U. after    7 cycles
 Optimization completed.
    -- Stationary point found.
 Normal termination of Gaussian 16 at Sun May 28 15:22:31 2023.

 ----------------------------------------------------------------------
 #N Geom=AllCheck Guess=TCheck SCRF=Check GenChk RB3LYP/6-31G(2df,p) Fr
 eq
 ----------------------------------------------------------------------

 Structure from the checkpoint file:  "NdC1CdCCdCC2qCC2rNCdC1.chk"
 -------------------
 Title Card Required
 -------------------
 Charge =  0 Multiplicity = 1

                         Standard orientation:
 ---------------------------------------------------------------------
 Center     Atomic      Atomic             Coordinates (Angstroms)
 Number     Number       Type             X           Y           Z
 ---------------------------------------------------------------------
      1          7           0        3.747633    0.367118   -0.021840
      2          6           0        2.491484    0.188542    0.171035
      3          6           0        1.794477   -1.059414    0.570695
      4          6           0        1.103285   -1.732292   -0.368703
      5          6           0       -0.309563   -1.782286   -0.044204
      6          6           0       -1.117691   -1.041871   -0.826770
      7          6           0       -1.839603    0.061357   -0.149930
      8          6           0       -3.322985    0.297920   -0.256897
      9          6           0       -2.727535   -0.198098    1.044267
     10          7           0       -1.041800    1.300307   -0.157340
     11          6           0        0.283866    1.725805   -0.098802
     12          6           0        1.601490    1.363323    0.019767
     13          1           0        4.244083   -0.511542    0.140107
     14          1           0        1.404901   -1.049942    1.588905
     15          1           0        1.390226   -1.658511   -1.414896
     16          1           0       -0.558813   -1.889177    1.009430
     17          1           0       -0.826592   -0.842827   -1.856853
     18          1           0       -3.892957   -0.396760   -0.862557
     19          1           0       -3.690318    1.320216   -0.285751
     20          1           0       -2.913351   -1.226783    1.334025
     21          1           0       -2.669801    0.505327    1.866811
     22          1           0       -1.632470    2.086824   -0.370392
     23          1           0        0.226829    2.807424   -0.212779
     24          1           0        2.234071    2.245874   -0.044540
 ---------------------------------------------------------------------

 SCF Done:  E(RB3LYP) =  -497.620999809     A.U. after    1 cycles

 The electronic state is 1-A.
 Alpha  occ. eigenvalues --  -14.36277 -14.29084 -10.24858 -10.23584 -10.22526
 Alpha  occ. eigenvalues --  -10.20725 -10.20489 -10.20026 -10.19635 -10.18690
 Alpha  occ. eigenvalues --  -10.18422 -10.16848  -0.94568  -0.88846  -0.85873
 Alpha  occ. eigenvalues --   -0.82837  -0.75661  -0.73495  -0.66791  -0.62011
 Alpha  occ. eigenvalues --   -0.60318  -0.59118  -0.56321  -0.52483  -0.51838
 Alpha  occ. eigenvalues --   -0.49824  -0.47619  -0.46203  -0.43760  -0.42267
 Alpha  occ. eigenvalues --   -0.41094  -0.39589  -0.38752  -0.37808  -0.36159
 Alpha  occ. eigenvalues --   -0.34702  -0.32600  -0.31595  -0.30047  -0.28731
 Alpha  occ. eigenvalues --   -0.24959  -0.20655  -0.19622
 Alpha virt. eigenvalues --   -0.02796  -0.02543   0.00591   0.05370   0.08687
 Alpha virt. eigenvalues --    0.09701   0.09985   0.11061   0.12481   0.14134
 Alpha virt. eigenvalues --    0.14346   0.15683   0.16411   0.17070   0.17959

 Mulliken charges:
               1
     1  N   -0.503411
     2  C    0.206828
     3  C   -0.183717
     4  C   -0.094766
     5  C   -0.080505
     6  C   -0.189472
     7  C    0.354387
     8  C   -0.337088
     9  C   -0.294067
    10  N   -0.379942
    11  C    0.015305
    12  C   -0.077404
    13  H    0.210521
    14  H    0.104564
    15  H    0.114842
    16  H    0.107020
    17  H    0.094074
    18  H    0.129398
    19  H    0.110076
    20  H    0.123756
    21  H    0.118763
    22  H    0.243248
    23  H    0.107248
    24  H    0.100342
 Sum of Mulliken charges =  -0.00000

 Dipole moment (field-independent basis, Debye):
    X=             -4.1025    Y=             -0.0905    Z=              0.2835  Tot=              4.1132
 Quadrupole moment (field-independent basis, Debye-Ang):
   XX=            -79.2843   YY=            -67.6059   ZZ=            -69.8923
   XY=             -8.5806   XZ=              1.2581   YZ=             -1.1149

  Exact polarizability: 187.350  -5.390 106.359   6.780  -2.324  84.148
 Approx polarizability: 321.063 -15.152 166.719  31.009  -4.934 148.789

                      1                      2                      3
                      A                      A                      A
 Frequencies --     50.5373               108.4201               139.0238
 Red. masses --      4.4647                 4.1489                 3.3821
 Frc consts  --      0.0067                 0.0287                 0.0385
 IR Inten    --      1.3681                 0.3553                 0.0260

                      4                      5                      6
                      A                      A                      A
 Frequencies --    204.7369               224.6103               274.1639
 Red. masses --      3.8125                 4.0274                 2.5668
 Frc consts  --      0.0942                 0.1197                 0.1137
 IR Inten    --      0.1575                 0.4680                 2.9098

                      7                      8                      9
                      A                      A                      A
 Frequencies --    283.6863               309.6118               344.9317
 Red. masses --      2.8628                 2.5766                 2.1075
 Frc consts  --      0.1357                 0.1455                 0.1477
 IR Inten    --      4.1740                 3.8863                33.8687

                     10                     11                     12
                      A                      A                      A
 Frequencies --    365.3767               393.8879               443.4874
 Red. masses --      2.8385                 3.2200                 1.9940
 Frc consts  --      0.2233                 0.2943                 0.2311
 IR Inten    --     13.1775                21.4033                19.3675

                     13                     14                     15
                      A                      A                      A
 Frequencies --    479.8748               514.3191               562.1477
 Red. masses --      2.3452                 4.7821                 3.3762
 Frc consts  --      0.3182                 0.7453                 0.6286
 IR Inten    --      6.6389                 1.9048                 4.7563

                     16                     17                     18
                      A                      A                      A
 Frequencies --    580.7359               664.0848               704.6830
 Red. masses --      4.4974                 3.0384                 2.8144
 Frc consts  --      0.8937                 0.7895                 0.8234
 IR Inten    --      4.4090                 4.4596                10.0676

                     19                     20                     21
                      A                      A                      A
 Frequencies --    765.3493               779.5706               798.3126
 Red. masses --      2.1265                 1.1488                 1.8049
 Frc consts  --      0.7339                 0.4113                 0.6777
 IR Inten    --     12.4133                 0.3557                35.7440

                     22                     23                     24
                      A                      A                      A
 Frequencies --    819.8769               841.3849               857.5135
 Red. masses --      1.9733                 2.0224                 3.4963
 Frc consts  --      0.7815                 0.8436                 1.5147
 IR Inten    --    196.0322                 4.9317                17.7693

                     25                     26                     27
                      A                      A                      A
 Frequencies --    892.0867               914.8950               924.1358
 Red. masses --      1.9147                 1.4656                 1.3595
 Frc consts  --      0.8978                 0.7228                 0.6841
 IR Inten    --      5.7169                32.9726                 3.5556

                     28                     29                     30
                      A                      A                      A
 Frequencies --    960.7593               980.9400               992.7694
 Red. masses --      2.9905                 1.3322                 1.7869
 Frc consts  --      1.6264                 0.7553                 1.0376
 IR Inten    --     25.2806                 1.6967                27.3389

                     31                     32                     33
                      A                      A                      A
 Frequencies --   1008.3002              1044.8388              1059.4235
 Red. masses --      1.4874                 2.1727                 1.6793
 Frc consts  --      0.8909                 1.3975                 1.1105
 IR Inten    --      3.6944                73.3335                35.4560

                     34                     35                     36
                      A                      A                      A
 Frequencies --   1079.6935              1083.4784              1157.8270
 Red. masses --      1.1885                 1.4175                 2.8452
 Frc consts  --      0.8163                 0.9804                 2.2472
 IR Inten    --     50.5169                 1.2899                 2.7504

                     37                     38                     39
                      A                      A                      A
 Frequencies --   1158.8891              1189.0801              1213.5594
 Red. masses --      2.2050                 1.2822                 1.5365
 Frc consts  --      1.7448                 1.0682                 1.3332
 IR Inten    --     16.9481                 0.1035                12.0491

                     40                     41                     42
                      A                      A                      A
 Frequencies --   1237.0776              1315.3857              1324.6411
 Red. masses --      1.7297                 1.3370                 1.6189
 Frc consts  --      1.5596                 1.3629                 1.6737
 IR Inten    --     34.8824                 3.6128                 0.7370

                     43                     44                     45
                      A                      A                      A
 Frequencies --   1339.1256              1342.1997              1370.9927
 Red. masses --      1.8333                 1.5614                 1.9697
 Frc consts  --      1.9370                 1.6573                 2.1813
 IR Inten    --      1.8825                27.4377                92.1208

                     46                     47                     48
                      A                      A                      A
 Frequencies --   1406.5082              1455.8186              1494.4998
 Red. masses --      1.2827                 1.0911                 1.3861
 Frc consts  --      1.4951                 1.3625                 1.8240
 IR Inten    --     38.3493                 3.9712                 2.3151

                     49                     50                     51
                      A                      A                      A
 Frequencies --   1515.4203              1548.0831              1608.6321
 Red. masses --      1.3852                 1.2774                 5.7186
 Frc consts  --      1.8742                 1.8037                 8.7188
 IR Inten    --    130.2499               124.2247                 3.1991

                     52                     53                     54
                      A                      A                      A
 Frequencies --   1624.4985              1630.4714              1655.3167
 Red. masses --      4.4736                 3.4625                 8.3150
 Frc consts  --      6.9558                 5.4234                13.4238
 IR Inten    --     25.9307               212.4451               217.3339

                     55                     56                     57
                      A                      A                      A
 Frequencies --   3114.2937              3117.3048              3121.2470
 Red. masses --      1.0855                 1.0839                 1.0561
 Frc consts  --      6.2030                 6.2058                 6.0622
 IR Inten    --      6.0117                 7.2831                14.7331

                     58                     59                     60
                      A                      A                      A
 Frequencies --   3133.4348              3135.2679              3146.6294
 Red. masses --      1.0846                 1.0580                 1.0877
 Frc consts  --      6.2743                 6.1273                 6.3450
 IR Inten    --     13.7010                 3.3803                 9.8449

                     61                     62                     63
                      A                      A                      A
 Frequencies --   3150.7180              3159.7360              3211.9827
 Red. masses --      1.0864                 1.0889                 1.1157
 Frc consts  --      6.3542                 6.4055                 6.7819
 IR Inten    --      9.8585                14.5796                 1.3422

                     64                     65                     66
                      A                      A                      A
 Frequencies --   3228.8470              3448.7366              3628.5915
 Red. masses --      1.1158                 1.0746                 1.0761
 Frc consts  --      6.8538                 7.5303                 8.3478
 IR Inten    --      9.3515                 0.7226                30.7526

 - Thermochemistry -
 -------------------
 Temperature   298.150 Kelvin.  Pressure   1.00000 Atm.
 Atom     1 has atomic number  7 and mass  14.00307

 Molecular mass:   160.10005 amu.
 Principal axes and moments of inertia in atomic units:
                           1         2         3
     Eigenvalues --   928.147862747.374213360.45516
           X            0.99998  -0.00611  -0.00317
           Y            0.00607   0.99992  -0.01107
           Z            0.00323   0.01105   0.99993
 This molecule is an asymmetric top.
 Rotational symmetry number  1.
 Warning -- assumption of classical behavior for rotation
           may cause significant error
 Rotational temperatures (Kelvin)      0.09332     0.03153     0.02577
 Rotational constants (GHZ):           1.94445     0.65690     0.53705
 Zero-point vibrational energy     524182.5 (Joules/Mol)
                                  125.28261 (Kcal/Mol)
 Warning -- explicit consideration of  16 degrees of freedom as
           vibrations may cause significant error
 Vibrational temperatures:     72.71   155.99   200.02   294.57   323.16
          (Kelvin)            394.46   408.16   445.46   496.28   525.70
                              566.72   638.08   690.43   739.99   808.81
                              835.55   955.47  1013.88  1101.17  1121.63
                             1148.59  1179.62  1210.57  1233.77  1283.51
                             1316.33  1329.63  1382.32  1411.35  1428.37
                             1450.72  1503.29  1524.27  1553.44  1558.88
                             1665.85  1667.38  1710.82  1746.04  1779.88
                             1892.55  1905.86  1926.70  1931.13  1972.55
                             2023.65  2094.60  2150.25  2180.35  2227.35
                             2314.46  2337.29  2345.88  2381.63  4480.77
                             4485.11  4490.78  4508.31  4510.95  4527.30
                             4533.18  4546.16  4621.33  4645.59  4961.96
                             5220.73

 Zero-point correction=                           0.199651 (Hartree/Particle)
 Thermal correction to Energy=                    0.210474
 Thermal correction to Enthalpy=                  0.211418
 Thermal correction to Gibbs Free Energy=         0.163520
 Sum of electronic and zero-point Energies=           -497.421349
 Sum of electronic and thermal Energies=              -497.410526
 Sum of electronic and thermal Enthalpies=            -497.409582
 Sum of electronic and thermal Free Energies=         -497.457480

                     E (Thermal)             CV                S
                      KCal/Mol        Cal/Mol-Kelvin    Cal/Mol-Kelvin
 Total                  132.074             43.306            100.809
 Electronic               0.000              0.000              0.000
 Translational            0.889              2.981             41.121
 Rotational               0.889              2.981             30.528
 Vibrational            130.297             37.344             29.161
 Vibration     1          0.595              1.977              4.796
 Vibration     2          0.606              1.942              3.297
 Vibration     3          0.615              1.914              2.817
 Vibration     4          0.640              1.833              2.090
 Vibration     5          0.649              1.804              1.922
 Vibration     6          0.676              1.721              1.570
 Vibration     7          0.682              1.704              1.511
 Vibration     8          0.699              1.655              1.364
 Vibration     9          0.723              1.586              1.189
 Vibration    10          0.739              1.544              1.099
 Vibration    11          0.761              1.483              0.985
 Vibration    12          0.803              1.375              0.816
 Vibration    13          0.836              1.295              0.710
 Vibration    14          0.869              1.218              0.623
 Vibration    15          0.918              1.113              0.520
 Vibration    16          0.937              1.073              0.484

                           ! Non-Optimized Parameters !
 Normal termination of Gaussian 16 at Sun May 28 16:24:09 2023.
