 Gaussian 16, Revision A.03,
 Gaussian 16:  ES64L-G16RevA.03 25-Dec-2016

 -----------------------------
 # opt freq b3lyp/6-31g(2df,p)
 -----------------------------

 -------------------
 Title Card Required
 -------------------
 Symbolic Z-matrix:
 Charge =  0 Multiplicity = 1

 SCF Done:  E(RB3LYP) =  -1880.31018665     A.U. after   19 cycles
 SCF Done:  E(RB3LYP) =  -1880.32739157     A.U. after   14 cycles
 SCF Done:  E(RB3LYP) =  -1880.32982184     A.U. after   14 cycles
 SCF Done:  E(RB3LYP) =  -1880.33338055     A.U. after   14 cycles
 SCF Done:  E(RB3LYP) =  -1880.33678465     A.U. after   15 cycles
 SCF Done:  E(RB3LYP) =  -1880.33952407     A.U. after   15 cycles
 SCF Done:  E(RB3LYP) =  -1880.34108273     A.U. after   14 cycles
 SCF Done:  E(RB3LYP) =  -1880.34715954     A.U. after   14 cycles
 SCF Done:  E(RB3LYP) =  -1880.34999871     A.U. after   16 cycles
 SCF Done:  E(RB3LYP) =  -1880.35061239     A.U. after   13 cycles
 SCF Done:  E(RB3LYP) =  -1880.36030373     A.U. after   13 cycles
 SCF Done:  E(RB3LYP) =  -1880.36101814     A.U. after   13 cycles
 SCF Done:  E(RB3LYP) =  -1880.36109058     A.U. after   11 cycles
 SCF Done:  E(RB3LYP) =  -1880.36111164     A.U. after   10 cycles
 SCF Done:  E(RB3LYP) =  -1880.36111676     A.U. after    9 cycles
 SCF Done:  E(RB3LYP) =  -1880.36111865     A.U. after    9 cycles
 SCF Done:  E(RB3LYP) =  -1880.36111911     A.U. after    8 cycles
 SCF Done:  E(RB3LYP) =  -1880.36111931     A.U. after    7 cycles
 SCF Done:  E(RB3LYP) =  -1880.36111937     A.U. after    7 cycles
 Optimization completed.
    -- Stationary point found.
 Normal termination of Gaussian 16 at Mon May 29 16:58:50 2023.

 ----------------------------------------------------------------------
 #N Geom=AllCheck Guess=TCheck SCRF=Check GenChk RB3LYP/6-31G(2df,p) Fr
 eq
 ----------------------------------------------------------------------

 Structure from the checkpoint file:  "NdC1CdCCdCC1qSrSSS.chk"
 -------------------
 Title Card Required
 -------------------
 Charge =  0 Multiplicity = 1

                         Standard orientation:
 ---------------------------------------------------------------------
 Center     Atomic      Atomic             Coordinates (Angstroms)
 Number     Number       Type             X           Y           Z
 ---------------------------------------------------------------------
      1          7           0       -0.862532   -0.133516    2.212827
      2          6           0       -1.432106   -0.206494    1.069151
      3          6           0       -2.649636   -0.967787    0.783746
      4          6           0       -3.355776   -0.770574   -0.345717
      5          6           0       -2.919168    0.180080   -1.353583
      6          6           0       -1.744836    0.820295   -1.236945
      7          6           0       -0.807568    0.529817   -0.111670
      8         16           0        0.105747    2.017451    0.381248
      9         16           0        0.331077   -0.814983   -0.969144
     10         16           0        1.898682   -1.105677    0.308311
     11         16           0        3.458769    0.173230   -0.258620
     12          1           0       -1.331634   -0.725376    2.900535
     13          1           0       -2.999187   -1.647383    1.555185
     14          1           0       -4.284222   -1.308368   -0.509082
     15          1           0       -3.564257    0.371955   -2.204064
     16          1           0       -1.403980    1.524036   -1.988141
     17          1           0        0.293736    1.568217    1.642282
     18          1           0        4.073414   -0.680827   -1.105140
 ---------------------------------------------------------------------

 SCF Done:  E(RB3LYP) =  -1880.36111937     A.U. after    1 cycles

 The electronic state is 1-A.
 Alpha  occ. eigenvalues --  -88.91772 -88.89928 -88.89253 -88.87279 -14.32671
 Alpha  occ. eigenvalues --  -10.26924 -10.25381 -10.21887 -10.21710 -10.21250
 Alpha  occ. eigenvalues --  -10.21080  -7.97862  -7.96170  -7.95852  -7.93873
 Alpha  occ. eigenvalues --   -5.94365  -5.94004  -5.93351  -5.92660  -5.92301
 Alpha  occ. eigenvalues --   -5.92294  -5.91949  -5.91677  -5.91349  -5.90327
 Alpha  occ. eigenvalues --   -5.89955  -5.89425  -0.92992  -0.85942  -0.82213
 Alpha  occ. eigenvalues --   -0.79469  -0.74813  -0.72645  -0.69198  -0.62533
 Alpha  occ. eigenvalues --   -0.61627  -0.58449  -0.52827  -0.50661  -0.47469
 Alpha  occ. eigenvalues --   -0.44897  -0.44751  -0.43815  -0.41290  -0.39845
 Alpha  occ. eigenvalues --   -0.38655  -0.36971  -0.35950  -0.35152  -0.33572
 Alpha  occ. eigenvalues --   -0.32020  -0.28412  -0.27074  -0.25510  -0.25027
 Alpha  occ. eigenvalues --   -0.23949  -0.23281
 Alpha virt. eigenvalues --   -0.08629  -0.04274  -0.01875   0.00066   0.01481
 Alpha virt. eigenvalues --    0.03479   0.03910   0.08025   0.08701   0.10221
 Alpha virt. eigenvalues --    0.11909   0.13582   0.15630   0.16928   0.17905

 Mulliken charges:
               1
     1  N   -0.506399
     2  C    0.313747
     3  C   -0.141822
     4  C   -0.079989
     5  C   -0.095036
     6  C   -0.088137
     7  C    0.038433
     8  S   -0.277338
     9  S   -0.052676
    10  S   -0.030138
    11  S   -0.169654
    12  H    0.226451
    13  H    0.108237
    14  H    0.115062
    15  H    0.114163
    16  H    0.134585
    17  H    0.220655
    18  H    0.169856
 Sum of Mulliken charges =  -0.00000

 Dipole moment (field-independent basis, Debye):
    X=             -2.9462    Y=             -1.4193    Z=             -0.7556  Tot=              3.3564
 Quadrupole moment (field-independent basis, Debye-Ang):
   XX=            -80.3767   YY=            -94.9734   ZZ=            -88.5264
   XY=              2.2483   XZ=             -1.6438   YZ=             -3.1795

  Exact polarizability: 203.341  12.470 118.491   6.913  -6.345 129.183
 Approx polarizability: 324.326  27.512 216.500  31.520 -12.916 260.618

                      1                      2                      3
                      A                      A                      A
 Frequencies --     28.6272                64.3497                82.5716
 Red. masses --     10.6146                 7.8279                 9.6132
 Frc consts  --      0.0051                 0.0191                 0.0386
 IR Inten    --      0.3666                 1.1171                 0.1582

                      4                      5                      6
                      A                      A                      A
 Frequencies --    120.1869               146.5656               179.4709
 Red. masses --      7.5685                 7.5664                 5.5785
 Frc consts  --      0.0644                 0.0958                 0.1059
 IR Inten    --      0.6845                 0.8458                 1.2658

                      7                      8                      9
                      A                      A                      A
 Frequencies --    217.1793               247.7097               278.0333
 Red. masses --      7.5097                 6.1366                 3.1081
 Frc consts  --      0.2087                 0.2219                 0.1416
 IR Inten    --      3.1459                 2.4256                 4.3429

                     10                     11                     12
                      A                      A                      A
 Frequencies --    311.5545               329.9692               349.9720
 Red. masses --      1.7955                 1.7356                 1.8468
 Frc consts  --      0.1027                 0.1113                 0.1333
 IR Inten    --      8.6649                 3.3815                12.0015

                     13                     14                     15
                      A                      A                      A
 Frequencies --    368.4679               445.6653               467.8525
 Red. masses --      4.2000                 8.3727                 8.1751
 Frc consts  --      0.3360                 0.9798                 1.0543
 IR Inten    --      9.0786                 5.5000                18.0489

                     16                     17                     18
                      A                      A                      A
 Frequencies --    488.3409               497.0219               517.4446
 Red. masses --     10.4640                 3.6289                 3.5590
 Frc consts  --      1.4703                 0.5282                 0.5614
 IR Inten    --      1.1859                 9.9866                 2.1067

                     19                     20                     21
                      A                      A                      A
 Frequencies --    555.2874               622.9605               740.0747
 Red. masses --      5.7821                 4.9282                 1.9647
 Frc consts  --      1.0504                 1.1268                 0.6340
 IR Inten    --      0.3983                 5.7871                18.2412

                     22                     23                     24
                      A                      A                      A
 Frequencies --    760.0734               807.8637               849.5103
 Red. masses --      2.0793                 4.8470                 1.5714
 Frc consts  --      0.7078                 1.8638                 0.6681
 IR Inten    --      5.6108                 5.7748                20.4133

                     25                     26                     27
                      A                      A                      A
 Frequencies --    862.1366               875.7710               902.7364
 Red. masses --      1.0683                 1.2872                 1.2903
 Frc consts  --      0.4678                 0.5817                 0.6195
 IR Inten    --      3.7076                12.8848                94.1952

                     28                     29                     30
                      A                      A                      A
 Frequencies --    980.6542               990.2480               999.7124
 Red. masses --      1.4134                 2.5556                 1.6349
 Frc consts  --      0.8009                 1.4765                 0.9627
 IR Inten    --      4.7593                 0.8906                 3.3964

                     31                     32                     33
                      A                      A                      A
 Frequencies --   1001.9080              1071.5634              1152.5604
 Red. masses --      2.6089                 2.1970                 1.6574
 Frc consts  --      1.5430                 1.4863                 1.2972
 IR Inten    --     14.4470                41.6969                 5.9147

                     34                     35                     36
                      A                      A                      A
 Frequencies --   1196.4965              1243.8436              1354.2048
 Red. masses --      1.0892                 1.3865                 1.8154
 Frc consts  --      0.9188                 1.2638                 1.9615
 IR Inten    --      6.1165                26.7983                45.2926

                     37                     38                     39
                      A                      A                      A
 Frequencies --   1399.7415              1443.2096              1609.6670
 Red. masses --      1.6859                 1.7660                 8.3572
 Frc consts  --      1.9461                 2.1672                12.7581
 IR Inten    --     21.3358                 3.1416                 4.8002

                     40                     41                     42
                      A                      A                      A
 Frequencies --   1652.1088              1696.1128              2614.8324
 Red. masses --      8.2884                 6.0326                 1.0371
 Frc consts  --     13.3290                10.2249                 4.1779
 IR Inten    --     52.3455                 9.5169                35.6602

                     43                     44                     45
                      A                      A                      A
 Frequencies --   2636.9616              3168.1961              3181.8211
 Red. masses --      1.0393                 1.0851                 1.0871
 Frc consts  --      4.2580                 6.4174                 6.4845
 IR Inten    --      3.1342                 0.6678                 8.7890

                     46                     47                     48
                      A                      A                      A
 Frequencies --   3191.2910              3203.9683              3459.1384
 Red. masses --      1.0941                 1.0985                 1.0748
 Frc consts  --      6.5651                 6.6441                 7.5773
 IR Inten    --     11.2003                10.2772                 0.5065

 - Thermochemistry -
 -------------------
 Temperature   298.150 Kelvin.  Pressure   1.00000 Atm.
 Atom     1 has atomic number  7 and mass  14.00307

 Molecular mass:   220.94614 amu.
 Principal axes and moments of inertia in atomic units:
                           1         2         3
     Eigenvalues --  1529.075814135.956744272.87388
           X            0.99997   0.00777  -0.00053
           Y           -0.00778   0.99311  -0.11691
           Z           -0.00038   0.11691   0.99314
 This molecule is an asymmetric top.
 Rotational symmetry number  1.
 Warning -- assumption of classical behavior for rotation
           may cause significant error
 Rotational temperatures (Kelvin)      0.05664     0.02094     0.02027
 Rotational constants (GHZ):           1.18028     0.43635     0.42237
 Zero-point vibrational energy     307234.7 (Joules/Mol)
                                   73.43086 (Kcal/Mol)
 Warning -- explicit consideration of  19 degrees of freedom as
           vibrations may cause significant error
 Vibrational temperatures:     41.19    92.58   118.80   172.92   210.88
          (Kelvin)            258.22   312.47   356.40   400.03   448.26
                              474.75   503.53   530.14   641.21   673.14
                              702.61   715.10   744.49   798.93   896.30
                             1064.80  1093.58  1162.34  1222.26  1240.42
                             1260.04  1298.84  1410.94  1424.75  1438.36
                             1441.52  1541.74  1658.28  1721.49  1789.61
                             1948.40  2013.92  2076.46  2315.95  2377.02
                             2440.33  3762.16  3794.00  4558.33  4577.93
                             4591.56  4609.80  4976.93

 Zero-point correction=                           0.117020 (Hartree/Particle)
 Thermal correction to Energy=                    0.129498
 Thermal correction to Enthalpy=                  0.130442
 Thermal correction to Gibbs Free Energy=         0.076960
 Sum of electronic and zero-point Energies=          -1880.244100
 Sum of electronic and thermal Energies=             -1880.231622
 Sum of electronic and thermal Enthalpies=           -1880.230677
 Sum of electronic and thermal Free Energies=        -1880.284159

                     E (Thermal)             CV                S
                      KCal/Mol        Cal/Mol-Kelvin    Cal/Mol-Kelvin
 Total                   81.261             44.997            112.562
 Electronic               0.000              0.000              0.000
 Translational            0.889              2.981             42.081
 Rotational               0.889              2.981             31.669
 Vibrational             79.484             39.036             38.812
 Vibration     1          0.593              1.984              5.922
 Vibration     2          0.597              1.971              4.319
 Vibration     3          0.600              1.961              3.829
 Vibration     4          0.609              1.932              3.097
 Vibration     5          0.617              1.906              2.716
 Vibration     6          0.629              1.868              2.334
 Vibration     7          0.646              1.815              1.982
 Vibration     8          0.661              1.767              1.747
 Vibration     9          0.679              1.714              1.546
 Vibration    10          0.700              1.652              1.354
 Vibration    11          0.713              1.616              1.260
 Vibration    12          0.727              1.575              1.166
 Vibration    13          0.741              1.537              1.086
 Vibration    14          0.805              1.370              0.809
 Vibration    15          0.825              1.321              0.744
 Vibration    16          0.844              1.276              0.688
 Vibration    17          0.853              1.257              0.666
 Vibration    18          0.872              1.211              0.616
 Vibration    19          0.911              1.128              0.533

                           ! Non-Optimized Parameters !
 Normal termination of Gaussian 16 at Mon May 29 17:40:45 2023.
