 Gaussian 16, Revision A.03,
 Gaussian 16:  ES64L-G16RevA.03 25-Dec-2016

 -----------------------------
 # opt freq b3lyp/6-31g(2df,p)
 -----------------------------

 -------------------
 Title Card Required
 -------------------
 Symbolic Z-matrix:
 Charge =  0 Multiplicity = 1

 SCF Done:  E(RB3LYP) =  -1331.57570238     A.U. after   39 cycles
 SCF Done:  E(RB3LYP) =  -1331.80683650     A.U. after   28 cycles
 SCF Done:  E(RB3LYP) =  -1332.10821838     A.U. after   24 cycles
 SCF Done:  E(RB3LYP) =  -1332.27395773     A.U. after   24 cycles
 SCF Done:  E(RB3LYP) =  -1332.08698595     A.U. after   27 cycles
 SCF Done:  E(RB3LYP) =  -1332.44348552     A.U. after   23 cycles
 SCF Done:  E(RB3LYP) =  -1332.46256047     A.U. after   26 cycles
 SCF Done:  E(RB3LYP) =  -1332.54719027     A.U. after   20 cycles
 SCF Done:  E(RB3LYP) =  -1332.65342018     A.U. after   19 cycles
 SCF Done:  E(RB3LYP) =  -1332.73174441     A.U. after   19 cycles
 SCF Done:  E(RB3LYP) =  -1333.21948104     A.U. after    8 cycles
 SCF Done:  E(RB3LYP) =  -1333.21948138     A.U. after    7 cycles
 SCF Done:  E(RB3LYP) =  -1333.21948165     A.U. after    8 cycles
 SCF Done:  E(RB3LYP) =  -1333.21948182     A.U. after    7 cycles
 SCF Done:  E(RB3LYP) =  -1333.21948199     A.U. after    8 cycles
 SCF Done:  E(RB3LYP) =  -1333.21948209     A.U. after    7 cycles
 SCF Done:  E(RB3LYP) =  -1333.21948216     A.U. after    7 cycles
 SCF Done:  E(RB3LYP) =  -1333.21948222     A.U. after    7 cycles
 SCF Done:  E(RB3LYP) =  -1333.21948226     A.U. after    7 cycles
 Optimization completed.
    -- Stationary point found.
 Normal termination of Gaussian 16 at Sun May 28 10:45:09 2023.

 ----------------------------------------------------------------------
 #N Geom=AllCheck Guess=TCheck SCRF=Check GenChk RB3LYP/6-31G(2df,p) Fr
 eq
 ----------------------------------------------------------------------

 Structure from the checkpoint file:  "NdC1CdCCdCCdCCdCNSCSC1.chk"
 -------------------
 Title Card Required
 -------------------
 Charge =  0 Multiplicity = 1

                         Standard orientation:
 ---------------------------------------------------------------------
 Center     Atomic      Atomic             Coordinates (Angstroms)
 Number     Number       Type             X           Y           Z
 ---------------------------------------------------------------------
      1          7           0       -6.495327   -1.930739    0.043384
      2          6           0       -4.968365    0.364637   -0.616642
      3          6           0       -5.223604   -2.003195    0.059469
      4          6           0       -4.376193   -0.801751   -0.094841
      5          6           0       -3.009727   -0.969524    0.081784
      6          6           0       -1.974882    0.007565   -0.004907
      7          6           0       -0.656629   -0.311174    0.083657
      8          6           0        0.476609    0.582441    0.066539
      9          6           0        1.742171    0.092196    0.018504
     10          6           0        2.987965    0.843694   -0.001631
     11          7           0        4.197847    0.187270    0.409646
     12         16           0        7.257953   -1.343227    0.049261
     13          6           0        4.250430    0.295736   -0.862381
     14         16           0        0.221671    2.355068    0.025132
     15          6           0       -4.888691    1.645639    0.089369
     16          1           0       -6.910433   -2.851804    0.195005
     17          1           0       -4.663715   -2.931361    0.245746
     18          1           0       -4.148242    1.750359    0.898837
     19          1           0       -2.671315   -2.002521    0.172317
     20          1           0       -2.249115    1.044887   -0.160815
     21          1           0       -0.393692   -1.363589    0.187804
     22          1           0       -0.729545    2.399539    0.978007
     23          1           0        1.848690   -0.989457   -0.045134
     24          1           0        2.942424    1.915122    0.161537
     25          1           0        4.714936   -0.196784    1.195147
     26          1           0        6.423507   -0.807180   -0.871991
     27          1           0        6.867965   -2.599179   -0.234045
     28          1           0       -4.891622    2.516849   -0.573132
     29          1           0       -5.885972    1.652361    0.575690
 ---------------------------------------------------------------------

 SCF Done:  E(RB3LYP) =  -1333.21948226     A.U. after    1 cycles

 The electronic state is 1-A.
 Alpha  occ. eigenvalues --  -88.88739 -88.87838 -14.40720 -14.31785 -10.24729
 Alpha  occ. eigenvalues --  -10.23941 -10.23516 -10.23330 -10.21645 -10.20833
 Alpha  occ. eigenvalues --  -10.20806 -10.20495 -10.20493 -10.20175 -10.20028
 Alpha  occ. eigenvalues --   -7.95258  -7.94810  -5.91706  -5.91367  -5.91190
 Alpha  occ. eigenvalues --   -5.90888  -5.90806  -5.90340  -1.03070  -0.90592
 Alpha  occ. eigenvalues --   -0.85116  -0.82698  -0.78087  -0.74781  -0.74282
 Alpha  occ. eigenvalues --   -0.73661  -0.69913  -0.66977  -0.62577  -0.61409
 Alpha  occ. eigenvalues --   -0.57392  -0.55091  -0.52440  -0.50075  -0.49274
 Alpha  occ. eigenvalues --   -0.48241  -0.45654  -0.45005  -0.44242  -0.43177
 Alpha  occ. eigenvalues --   -0.42196  -0.41365  -0.41100  -0.39684  -0.38256
 Alpha  occ. eigenvalues --   -0.37034  -0.36734  -0.35184  -0.34729  -0.34233
 Alpha  occ. eigenvalues --   -0.32682  -0.30338  -0.27040  -0.26708  -0.26594
 Alpha  occ. eigenvalues --   -0.25489  -0.22416  -0.18095
 Alpha virt. eigenvalues --   -0.09359  -0.05994  -0.03022  -0.00546   0.02118
 Alpha virt. eigenvalues --    0.02455   0.05013   0.05684   0.05768   0.07986
 Alpha virt. eigenvalues --    0.08444   0.09007   0.10244   0.11922   0.13330

 Mulliken charges:
               1
     1  N   -0.402895
     2  C   -0.090469
     3  C   -0.012023
     4  C    0.211843
     5  C   -0.126512
     6  C   -0.145147
     7  C   -0.099854
     8  C    0.163168
     9  C   -0.113737
    10  C   -0.107407
    11  N   -0.111316
    12  S   -0.412477
    13  C   -0.200915
    14  S   -0.267927
    15  C   -0.415587
    16  H    0.227904
    17  H    0.082086
    18  H    0.113862
    19  H    0.087209
    20  H    0.104884
    21  H    0.090196
    22  H    0.157976
    23  H    0.095759
    24  H    0.133875
    25  H    0.306076
    26  H    0.213264
    27  H    0.182365
    28  H    0.148925
    29  H    0.186873
 Sum of Mulliken charges =  -0.00000

 Dipole moment (field-independent basis, Debye):
    X=              0.6323    Y=             -1.6978    Z=              3.8694  Tot=              4.2725
 Quadrupole moment (field-independent basis, Debye-Ang):
   XX=           -130.4315   YY=            -91.0704   ZZ=           -109.7850
   XY=             -3.3290   XZ=             -1.2860   YZ=              1.7986

  Exact polarizability: 505.376   1.273 174.375   3.016  -2.787 100.196
 Approx polarizability: 879.857 -33.425 269.595  27.404 -11.036 180.038

                      1                      2                      3
                      A                      A                      A
 Frequencies --     15.1865                17.1684                35.6375
 Red. masses --      8.3537                 5.2698                 6.0317
 Frc consts  --      0.0011                 0.0009                 0.0045
 IR Inten    --      0.8444                 2.7113                 6.5442

                      4                      5                      6
                      A                      A                      A
 Frequencies --     46.2666                52.0514                75.0062
 Red. masses --      5.2298                 5.8132                 8.0742
 Frc consts  --      0.0066                 0.0093                 0.0268
 IR Inten    --      3.3952                 1.8765                 4.6336

                      7                      8                      9
                      A                      A                      A
 Frequencies --     85.0303                96.1785               108.5307
 Red. masses --      3.1310                 3.4598                 3.7779
 Frc consts  --      0.0133                 0.0189                 0.0262
 IR Inten    --     11.7244                27.0730                37.8558

                     10                     11                     12
                      A                      A                      A
 Frequencies --    129.7695               157.9223               165.5860
 Red. masses --      3.2676                 1.8489                 1.3007
 Frc consts  --      0.0324                 0.0272                 0.0210
 IR Inten    --      3.3171                20.1628                10.9355

                     13                     14                     15
                      A                      A                      A
 Frequencies --    172.8983               179.0457               204.3257
 Red. masses --      1.4968                 4.3475                 3.1949
 Frc consts  --      0.0264                 0.0821                 0.0786
 IR Inten    --     15.2012                 2.3645                 9.5028

                     16                     17                     18
                      A                      A                      A
 Frequencies --    240.0946               252.1267               258.7440
 Red. masses --      1.8651                 1.2605                 1.9669
 Frc consts  --      0.0633                 0.0472                 0.0776
 IR Inten    --      2.7578                37.0449                 2.3822

                     19                     20                     21
                      A                      A                      A
 Frequencies --    286.0737               296.5979               314.9698
 Red. masses --      2.6781                 3.2142                 2.4962
 Frc consts  --      0.1291                 0.1666                 0.1459
 IR Inten    --     31.5315                10.0764                 7.9076

                     22                     23                     24
                      A                      A                      A
 Frequencies --    354.5695               381.3310               410.0568
 Red. masses --      4.1107                 1.0699                 4.0833
 Frc consts  --      0.3045                 0.0917                 0.4045
 IR Inten    --     14.6195               178.0895                42.7310

                     25                     26                     27
                      A                      A                      A
 Frequencies --    450.4980               494.6266               509.9082
 Red. masses --      4.4062                 4.9305                 3.0303
 Frc consts  --      0.5269                 0.7107                 0.4642
 IR Inten    --      9.0069                 1.7985                12.4937

                     28                     29                     30
                      A                      A                      A
 Frequencies --    544.7719               571.5332               619.2411
 Red. masses --      3.4276                 1.2585                 3.8523
 Frc consts  --      0.5993                 0.2422                 0.8703
 IR Inten    --      1.5916                98.6374                10.7443

                     31                     32                     33
                      A                      A                      A
 Frequencies --    647.3839               680.1014               687.4647
 Red. masses --      5.5252                 4.1380                 4.1655
 Frc consts  --      1.3643                 1.1277                 1.1599
 IR Inten    --     83.9964                35.0569                15.8571

                     34                     35                     36
                      A                      A                      A
 Frequencies --    754.5658               799.4200               860.3405
 Red. masses --      2.2243                 1.5476                 1.5054
 Frc consts  --      0.7462                 0.5827                 0.6565
 IR Inten    --     11.9562                35.3696                 1.7752

                     37                     38                     39
                      A                      A                      A
 Frequencies --    863.8571               899.6915               913.1312
 Red. masses --      2.2842                 1.6404                 1.8985
 Frc consts  --      1.0043                 0.7823                 0.9327
 IR Inten    --    113.4673                34.4088                 6.6315

                     40                     41                     42
                      A                      A                      A
 Frequencies --    942.6637               972.8478              1000.4946
 Red. masses --      1.1931                 1.7079                 1.1143
 Frc consts  --      0.6247                 0.9524                 0.6572
 IR Inten    --     11.3905                 8.6615                32.4544

                     43                     44                     45
                      A                      A                      A
 Frequencies --   1024.5531              1052.0215              1085.7434
 Red. masses --      1.2035                 1.6792                 2.2196
 Frc consts  --      0.7443                 1.0950                 1.5416
 IR Inten    --     52.6686               298.7737                66.6681

                     46                     47                     48
                      A                      A                      A
 Frequencies --   1100.2588              1122.2382              1178.2325
 Red. masses --      1.2528                 3.0977                 3.3560
 Frc consts  --      0.8935                 2.2986                 2.7449
 IR Inten    --     14.3364                19.6021                30.2644

                     49                     50                     51
                      A                      A                      A
 Frequencies --   1190.6067              1221.0196              1225.0056
 Red. masses --      3.4116                 1.0526                 2.6462
 Frc consts  --      2.8493                 0.9246                 2.3396
 IR Inten    --     16.7924                10.1014                33.5964

                     52                     53                     54
                      A                      A                      A
 Frequencies --   1233.6835              1246.5608              1288.1281
 Red. masses --      1.4115                 1.3134                 1.4405
 Frc consts  --      1.2657                 1.2024                 1.4083
 IR Inten    --     38.8740                13.8209                 0.3030

                     55                     56                     57
                      A                      A                      A
 Frequencies --   1314.1063              1326.5414              1337.7911
 Red. masses --      1.4714                 1.2260                 1.3423
 Frc consts  --      1.4971                 1.2711                 1.4154
 IR Inten    --     11.0120                 8.2638                18.3478

                     58                     59                     60
                      A                      A                      A
 Frequencies --   1380.4697              1393.8695              1413.5445
 Red. masses --      1.3974                 1.0918                 2.1569
 Frc consts  --      1.5690                 1.2498                 2.5392
 IR Inten    --      7.1570                17.5398                19.8234

                     61                     62                     63
                      A                      A                      A
 Frequencies --   1436.3216              1483.7841              1512.8901
 Red. masses --      1.8713                 1.1348                 3.5603
 Frc consts  --      2.2746                 1.4720                 4.8012
 IR Inten    --     28.0272                64.7147                 7.6325

                     64                     65                     66
                      A                      A                      A
 Frequencies --   1598.4331              1621.7709              1644.7713
 Red. masses --      8.1033                 4.6540                 5.8188
 Frc consts  --     12.1984                 7.2119                 9.2746
 IR Inten    --    169.2267                36.6943                17.1651

                     67                     68                     69
                      A                      A                      A
 Frequencies --   1688.7395              2600.5898              2660.3116
 Red. masses --      6.4892                 1.0380                 1.0384
 Frc consts  --     10.9034                 4.1362                 4.3300
 IR Inten    --    163.5041               248.4849                 4.1172

                     70                     71                     72
                      A                      A                      A
 Frequencies --   2698.3748              2938.6651              2985.8686
 Red. masses --      1.0381                 1.0416                 1.0931
 Frc consts  --      4.4534                 5.2998                 5.7417
 IR Inten    --      3.1929                10.2698                54.5179

                     73                     74                     75
                      A                      A                      A
 Frequencies --   3004.7789              3087.9900              3112.6357
 Red. masses --      1.0862                 1.0940                 1.0852
 Frc consts  --      5.7780                 6.1463                 6.1948
 IR Inten    --     39.1700                14.8986                13.4368

                     76                     77                     78
                      A                      A                      A
 Frequencies --   3128.4736              3143.1106              3170.5142
 Red. masses --      1.0868                 1.0869                 1.0868
 Frc consts  --      6.2671                 6.3262                 6.4368
 IR Inten    --      9.0230                 8.5587                 7.7489

                     79                     80                     81
                      A                      A                      A
 Frequencies --   3194.3561              3458.7069              3493.9611
 Red. masses --      1.0867                 1.0756                 1.0845
 Frc consts  --      6.5332                 7.5814                 7.8006
 IR Inten    --      7.1952                 0.1683                45.6371

 - Thermochemistry -
 -------------------
 Temperature   298.150 Kelvin.  Pressure   1.00000 Atm.
 Atom     1 has atomic number  7 and mass  14.00307

 Molecular mass:   238.05984 amu.
 Principal axes and moments of inertia in atomic units:
                           1         2         3
     Eigenvalues --  1711.20503********************
           X            0.99999  -0.00357  -0.00202
           Y            0.00358   0.99997   0.00640
           Z            0.00200  -0.00641   0.99998
 This molecule is an asymmetric top.
 Rotational symmetry number  1.
 Warning -- assumption of classical behavior for rotation
           may cause significant error
 Rotational temperatures (Kelvin)      0.05062     0.00540     0.00492
 Rotational constants (GHZ):           1.05466     0.11252     0.10255
 Zero-point vibrational energy     558339.8 (Joules/Mol)
                                  133.44642 (Kcal/Mol)
 Warning -- explicit consideration of  30 degrees of freedom as
           vibrations may cause significant error
 Vibrational temperatures:     21.85    24.70    51.27    66.57    74.89
          (Kelvin)            107.92   122.34   138.38   156.15   186.71
                              227.21   238.24   248.76   257.61   293.98
                              345.44   362.75   372.27   411.60   426.74
                              453.17   510.15   548.65   589.98   648.17
                              711.66   733.64   783.81   822.31   890.95
                              931.44   978.51   989.11  1085.65  1150.19
                             1237.84  1242.90  1294.46  1313.79  1356.28
                             1399.71  1439.49  1474.10  1513.62  1562.14
                             1583.03  1614.65  1695.21  1713.02  1756.77
                             1762.51  1775.00  1793.52  1853.33  1890.71
                             1908.60  1924.78  1986.19  2005.47  2033.78
                             2066.55  2134.83  2176.71  2299.79  2333.37
                             2366.46  2429.72  3741.67  3827.60  3882.36
                             4228.08  4296.00  4323.21  4442.93  4478.39
                             4501.18  4522.24  4561.66  4595.97  4976.31
                             5027.03

 Zero-point correction=                           0.212660 (Hartree/Particle)
 Thermal correction to Energy=                    0.232691
 Thermal correction to Enthalpy=                  0.233635
 Thermal correction to Gibbs Free Energy=         0.160015
 Sum of electronic and zero-point Energies=          -1333.006822
 Sum of electronic and thermal Energies=             -1332.986792
 Sum of electronic and thermal Enthalpies=           -1332.985847
 Sum of electronic and thermal Free Energies=        -1333.059467

                     E (Thermal)             CV                S
                      KCal/Mol        Cal/Mol-Kelvin    Cal/Mol-Kelvin
 Total                  146.016             68.242            154.946
 Electronic               0.000              0.000              0.000
 Translational            0.889              2.981             42.303
 Rotational               0.889              2.981             34.534
 Vibrational            144.238             62.280             78.108
 Vibration     1          0.593              1.986              7.181
 Vibration     2          0.593              1.986              6.937
 Vibration     3          0.594              1.982              5.488
 Vibration     4          0.595              1.979              4.971
 Vibration     5          0.596              1.977              4.738
 Vibration     6          0.599              1.966              4.017
 Vibration     7          0.601              1.960              3.771
 Vibration     8          0.603              1.952              3.530
 Vibration     9          0.606              1.942              3.295
 Vibration    10          0.612              1.924              2.949
 Vibration    11          0.621              1.894              2.575
 Vibration    12          0.624              1.885              2.485
 Vibration    13          0.626              1.876              2.404
 Vibration    14          0.629              1.868              2.338
 Vibration    15          0.640              1.834              2.094
 Vibration    16          0.657              1.779              1.802
 Vibration    17          0.664              1.759              1.716
 Vibration    18          0.668              1.748              1.670
 Vibration    19          0.684              1.700              1.497
 Vibration    20          0.690              1.680              1.436
 Vibration    21          0.702              1.645              1.336
 Vibration    22          0.730              1.566              1.146
 Vibration    23          0.751              1.510              1.034
 Vibration    24          0.774              1.448              0.926
 Vibration    25          0.809              1.360              0.794
 Vibration    26          0.850              1.262              0.672
 Vibration    27          0.865              1.228              0.634
 Vibration    28          0.900              1.151              0.555
 Vibration    29          0.928              1.093              0.501
 Vibration    30          0.979              0.991              0.418

                           ! Non-Optimized Parameters !
 Normal termination of Gaussian 16 at Sun May 28 12:06:12 2023.
