 Gaussian 16, Revision A.03,
 Gaussian 16:  ES64L-G16RevA.03 25-Dec-2016

 -----------------------------
 # opt freq b3lyp/6-31g(2df,p)
 -----------------------------

 -------------------
 Title Card Required
 -------------------
 Symbolic Z-matrix:
 Charge =  0 Multiplicity = 2

 SCF Done:  E(UB3LYP) =  -498.944644852     A.U. after   30 cycles
 SCF Done:  E(UB3LYP) =  -498.951319057     A.U. after   24 cycles
 SCF Done:  E(UB3LYP) =  -499.082333127     A.U. after   23 cycles
 SCF Done:  E(UB3LYP) =  -499.188679899     A.U. after   18 cycles
 SCF Done:  E(UB3LYP) =  -497.565506720     A.U. after   23 cycles
 SCF Done:  E(UB3LYP) =  -499.187871176     A.U. after   18 cycles
 SCF Done:  E(UB3LYP) =  -499.223034962     A.U. after   15 cycles
 SCF Done:  E(UB3LYP) =  -499.257290451     A.U. after   16 cycles
 SCF Done:  E(UB3LYP) =  -499.294646924     A.U. after   16 cycles
 SCF Done:  E(UB3LYP) =  -499.333858152     A.U. after   15 cycles
 SCF Done:  E(UB3LYP) =  -499.537221774     A.U. after   11 cycles
 SCF Done:  E(UB3LYP) =  -499.537440355     A.U. after   13 cycles
 SCF Done:  E(UB3LYP) =  -499.537580039     A.U. after   12 cycles
 SCF Done:  E(UB3LYP) =  -499.537655436     A.U. after   13 cycles
 SCF Done:  E(UB3LYP) =  -499.537694403     A.U. after   10 cycles
 SCF Done:  E(UB3LYP) =  -499.537706005     A.U. after    9 cycles
 SCF Done:  E(UB3LYP) =  -499.537709707     A.U. after    8 cycles
 SCF Done:  E(UB3LYP) =  -499.537710682     A.U. after    7 cycles
 SCF Done:  E(UB3LYP) =  -499.537710875     A.U. after    7 cycles
 Optimization completed.
    -- Stationary point found.

 The electronic state is 2-A.
 Alpha  occ. eigenvalues --  -14.33316 -14.30530 -10.22784 -10.22226 -10.19470
 Alpha  occ. eigenvalues --  -10.19372 -10.19147 -10.18818 -10.17594 -10.17109
 Alpha  occ. eigenvalues --  -10.17061 -10.17015  -0.92776  -0.89718  -0.82714
 Alpha  occ. eigenvalues --   -0.76413  -0.75010  -0.73690  -0.65502  -0.64697
 Alpha  occ. eigenvalues --   -0.60226  -0.58663  -0.54729  -0.50171  -0.49320
 Alpha  occ. eigenvalues --   -0.48495  -0.46130  -0.45364  -0.43623  -0.42918
 Alpha  occ. eigenvalues --   -0.41597  -0.40379  -0.39782  -0.38066  -0.37214
 Alpha  occ. eigenvalues --   -0.36715  -0.35756  -0.32947  -0.31504  -0.31398
 Alpha  occ. eigenvalues --   -0.29284  -0.26439  -0.24980  -0.23546  -0.15833
 Alpha virt. eigenvalues --    0.00170   0.03227   0.07610   0.09536   0.10556
 Alpha virt. eigenvalues --    0.12420   0.12726   0.13889   0.14307   0.15150
 Alpha virt. eigenvalues --    0.16146   0.17036   0.17281   0.18234   0.19008

  Beta  occ. eigenvalues --  -14.33075 -14.30515 -10.22793 -10.22104 -10.19458
  Beta  occ. eigenvalues --  -10.19042 -10.18847 -10.18109 -10.17596 -10.17103
  Beta  occ. eigenvalues --  -10.17056 -10.17010  -0.92050  -0.89550  -0.82550
  Beta  occ. eigenvalues --   -0.75960  -0.74789  -0.73609  -0.64799  -0.64232
  Beta  occ. eigenvalues --   -0.59900  -0.58094  -0.54541  -0.49843  -0.49118
  Beta  occ. eigenvalues --   -0.48284  -0.45798  -0.44911  -0.43257  -0.42635
  Beta  occ. eigenvalues --   -0.41457  -0.40153  -0.39485  -0.37876  -0.36740
  Beta  occ. eigenvalues --   -0.36543  -0.35619  -0.32627  -0.31403  -0.31245
  Beta  occ. eigenvalues --   -0.28852  -0.24976  -0.24300  -0.23533
  Beta virt. eigenvalues --   -0.02778   0.00490   0.03245   0.07671   0.09637
  Beta virt. eigenvalues --    0.10638   0.12583   0.12841   0.13998   0.14547
  Beta virt. eigenvalues --    0.15221   0.16263   0.17115   0.17553   0.18347

 Mulliken charges and spin densities:
               1          2
     1  N   -0.457316   0.007375
     2  C    0.306561  -0.003081
     3  C   -0.291802   0.010083
     4  C   -0.165557   0.031576
     5  N   -0.244901   0.091976
     6  C   -0.137262   0.848449
     7  C   -0.021470  -0.026453
     8  C   -0.204608   0.003012
     9  C   -0.272986  -0.000171
    10  C   -0.051054   0.000789
    11  C   -0.037127   0.002654
    12  C   -0.099118   0.044505
    13  H    0.207849  -0.000330
    14  H    0.099939   0.002109
    15  H    0.104994  -0.000390
    16  H    0.105226   0.001779
    17  H    0.118827  -0.000619
    18  H    0.222789  -0.003274
    19  H    0.094455  -0.034015
    20  H    0.072839   0.021876
    21  H    0.092127   0.001100
    22  H    0.123510  -0.000277
    23  H    0.102270   0.000004
    24  H    0.102031  -0.000194
    25  H    0.081779  -0.000179
    26  H    0.081020   0.003732
    27  H    0.066985  -0.002037
 Sum of Mulliken charges =  -0.00000   1.00000

 Dipole moment (field-independent basis, Debye):
    X=              1.6134    Y=             -0.2847    Z=             -1.3105  Tot=              2.0980
 Quadrupole moment (field-independent basis, Debye-Ang):
   XX=            -67.7906   YY=            -77.1470   ZZ=            -70.7505
   XY=             -5.8799   XZ=              0.2689   YZ=              1.1345

 Normal termination of Gaussian 16 at Tue May 23 04:26:44 2023.

 ----------------------------------------------------------------------
 #N Geom=AllCheck Guess=TCheck SCRF=Check GenChk UB3LYP/6-31G(2df,p) Fr
 eq
 ----------------------------------------------------------------------

 Structure from the checkpoint file:  "NdC1CCN[CH]C2CCCdCC12.chk"
 -------------------
 Title Card Required
 -------------------
 Charge =  0 Multiplicity = 2

                         Standard orientation:
 ---------------------------------------------------------------------
 Center     Atomic      Atomic             Coordinates (Angstroms)
 Number     Number       Type             X           Y           Z
 ---------------------------------------------------------------------
      1          7           0        0.330175   -1.786803    1.237132
      2          6           0        0.754128   -1.166957    0.208342
      3          6           0        2.219242   -1.079684   -0.207603
      4          6           0        2.861826    0.312862    0.032115
      5          7           0        2.043622    1.429605   -0.447950
      6          6           0        0.841494    1.623394    0.244377
      7          6           0       -0.449997    1.050842   -0.268096
      8          6           0       -1.565622    1.169784    0.778073
      9          6           0       -2.903423    0.656198    0.237893
     10          6           0       -2.745811   -0.682634   -0.430171
     11          6           0       -1.571790   -1.181549   -0.809320
     12          6           0       -0.256941   -0.452341   -0.700228
     13          1           0        1.110207   -2.201919    1.754988
     14          1           0        2.798253   -1.837955    0.333321
     15          1           0        2.297233   -1.318607   -1.276688
     16          1           0        3.846997    0.346799   -0.446228
     17          1           0        3.015238    0.461462    1.106678
     18          1           0        1.908066    1.378742   -1.451782
     19          1           0        0.967456    1.718013    1.320904
     20          1           0       -0.773582    1.586455   -1.175600
     21          1           0       -1.652824    2.212637    1.101960
     22          1           0       -1.282723    0.576628    1.655817
     23          1           0       -3.334151    1.379709   -0.471240
     24          1           0       -3.633310    0.577359    1.053196
     25          1           0       -3.648952   -1.267133   -0.590087
     26          1           0       -1.525231   -2.175288   -1.248622
     27          1           0        0.192103   -0.435998   -1.703192
 ---------------------------------------------------------------------

 SCF Done:  E(UB3LYP) =  -499.537710875     A.U. after    1 cycles
