 Gaussian 16, Revision A.03,
 Gaussian 16:  ES64L-G16RevA.03 25-Dec-2016

 -----------------------------
 # opt freq b3lyp/6-31g(2df,p)
 -----------------------------

 -------------------
 Title Card Required
 -------------------
 Symbolic Z-matrix:
 Charge =  0 Multiplicity = 1

 SCF Done:  E(RB3LYP) =  -1350.87782743     A.U. after   13 cycles
 SCF Done:  E(RB3LYP) =  -1350.88931470     A.U. after   11 cycles
 SCF Done:  E(RB3LYP) =  -1350.89088785     A.U. after   12 cycles
 SCF Done:  E(RB3LYP) =  -1350.89125162     A.U. after   11 cycles
 SCF Done:  E(RB3LYP) =  -1350.89146451     A.U. after   11 cycles
 SCF Done:  E(RB3LYP) =  -1350.89175476     A.U. after   13 cycles
 SCF Done:  E(RB3LYP) =  -1350.89233848     A.U. after   12 cycles
 SCF Done:  E(RB3LYP) =  -1350.89285931     A.U. after   12 cycles
 SCF Done:  E(RB3LYP) =  -1350.89307945     A.U. after   12 cycles
 SCF Done:  E(RB3LYP) =  -1350.89283499     A.U. after   12 cycles
 SCF Done:  E(RB3LYP) =  -1350.89310841     A.U. after   12 cycles
 SCF Done:  E(RB3LYP) =  -1350.89306144     A.U. after   10 cycles
 SCF Done:  E(RB3LYP) =  -1350.89311746     A.U. after   11 cycles
 SCF Done:  E(RB3LYP) =  -1350.89311606     A.U. after    8 cycles
 SCF Done:  E(RB3LYP) =  -1350.89312202     A.U. after   11 cycles
 SCF Done:  E(RB3LYP) =  -1350.89312414     A.U. after   10 cycles
 SCF Done:  E(RB3LYP) =  -1350.89312546     A.U. after    7 cycles
 SCF Done:  E(RB3LYP) =  -1350.89312568     A.U. after    7 cycles
 SCF Done:  E(RB3LYP) =  -1350.89312569     A.U. after    7 cycles
 Optimization completed.
    -- Stationary point found.
 Normal termination of Gaussian 16 at Sun May 28 07:40:13 2023.

 ----------------------------------------------------------------------
 #N Geom=AllCheck Guess=TCheck SCRF=Check GenChk RB3LYP/6-31G(2df,p) Fr
 eq
 ----------------------------------------------------------------------

 Structure from the checkpoint file:  "NdCCNNCCSCC1SCC1O.chk"
 -------------------
 Title Card Required
 -------------------
 Charge =  0 Multiplicity = 1

                         Standard orientation:
 ---------------------------------------------------------------------
 Center     Atomic      Atomic             Coordinates (Angstroms)
 Number     Number       Type             X           Y           Z
 ---------------------------------------------------------------------
      1          7           0        7.773599   -0.010112   -0.530236
      2          6           0        6.795314    0.311967    0.211093
      3          6           0        5.555915   -0.538690    0.283258
      4          7           0        4.375046    0.306890    0.076216
      5          7           0        3.176910   -0.540933    0.164051
      6          6           0        2.000749    0.305577   -0.060582
      7          6           0        0.737025   -0.531632    0.126533
      8         16           0       -0.740829    0.497086   -0.194140
      9          6           0       -2.034582   -0.783020    0.059790
     10          6           0       -3.379509   -0.263495   -0.409385
     11         16           0       -4.847784   -1.377771   -0.123241
     12          6           0       -5.513477    0.310909    0.245394
     13          6           0       -4.077181    0.855972    0.399784
     14          8           0       -3.828619    2.184744    0.024956
     15          1           0        8.530310    0.672681   -0.444461
     16          1           0        6.763291    1.213242    0.839414
     17          1           0        5.486955   -0.955042    1.300031
     18          1           0        5.636276   -1.380195   -0.417331
     19          1           0        4.394831    0.593640   -0.902342
     20          1           0        3.154408   -0.815996    1.146430
     21          1           0        2.040925    0.671049   -1.094322
     22          1           0        1.986135    1.189731    0.595077
     23          1           0        0.684562   -0.917769    1.151059
     24          1           0        0.750037   -1.382472   -0.560490
     25          1           0       -2.082644   -1.057172    1.117973
     26          1           0       -1.753399   -1.671726   -0.514152
     27          1           0       -3.336831   -0.002078   -1.472940
     28          1           0       -6.160840    0.370980    1.120286
     29          1           0       -6.029152    0.723589   -0.626765
     30          1           0       -3.769851    0.782145    1.447261
     31          1           0       -4.032647    2.281961   -0.911806
 ---------------------------------------------------------------------

 SCF Done:  E(RB3LYP) =  -1350.89312569     A.U. after    1 cycles

 The electronic state is 1-A.
 Alpha  occ. eigenvalues --  -88.87236 -88.86890 -19.15231 -14.34745 -14.34644
 Alpha  occ. eigenvalues --  -14.32100 -10.25249 -10.23240 -10.22867 -10.22117
 Alpha  occ. eigenvalues --  -10.21897 -10.21682 -10.21573 -10.21264  -7.93567
 Alpha  occ. eigenvalues --   -7.93210  -5.89995  -5.89776  -5.89699  -5.89365
 Alpha  occ. eigenvalues --   -5.89071  -5.88709  -1.03671  -0.96933  -0.90454
 Alpha  occ. eigenvalues --   -0.85651  -0.83326  -0.79500  -0.74478  -0.69065
 Alpha  occ. eigenvalues --   -0.66966  -0.66492  -0.62668  -0.59408  -0.57824
 Alpha  occ. eigenvalues --   -0.56788  -0.52145  -0.51492  -0.49001  -0.48283
 Alpha  occ. eigenvalues --   -0.47907  -0.46031  -0.45102  -0.43182  -0.41686
 Alpha  occ. eigenvalues --   -0.40930  -0.40229  -0.40020  -0.39370  -0.38730
 Alpha  occ. eigenvalues --   -0.37636  -0.37301  -0.36584  -0.33329  -0.31831
 Alpha  occ. eigenvalues --   -0.31608  -0.30714  -0.29402  -0.27924  -0.26516
 Alpha  occ. eigenvalues --   -0.23085  -0.22405  -0.20204
 Alpha virt. eigenvalues --   -0.00828  -0.00108   0.03179   0.03742   0.07102
 Alpha virt. eigenvalues --    0.08090   0.09109   0.09448   0.09626   0.09978
 Alpha virt. eigenvalues --    0.10882   0.11213   0.13088   0.13764   0.15070

 Mulliken charges:
               1
     1  N   -0.368530
     2  C    0.019874
     3  C   -0.142195
     4  N   -0.300641
     5  N   -0.297815
     6  C   -0.122588
     7  C   -0.209720
     8  S   -0.144333
     9  C   -0.225377
    10  C   -0.036013
    11  S   -0.183247
    12  C   -0.247422
    13  C    0.151901
    14  O   -0.417956
    15  H    0.227138
    16  H    0.097338
    17  H    0.111100
    18  H    0.117139
    19  H    0.233721
    20  H    0.225427
    21  H    0.117870
    22  H    0.112220
    23  H    0.117982
    24  H    0.133844
    25  H    0.132733
    26  H    0.131479
    27  H    0.110174
    28  H    0.134293
    29  H    0.122326
    30  H    0.115487
    31  H    0.283790
 Sum of Mulliken charges =  -0.00000

 Dipole moment (field-independent basis, Debye):
    X=             -0.4113    Y=              0.7671    Z=              0.6740  Tot=              1.1009
 Quadrupole moment (field-independent basis, Debye-Ang):
   XX=            -99.0172   YY=           -105.2607   ZZ=            -96.3864
   XY=              3.3548   XZ=             10.1074   YZ=             -5.8546

  Exact polarizability: 224.352   5.895 130.471  -7.067  -1.103 111.961
 Approx polarizability: 255.448   6.244 214.912 -14.051  -2.019 189.164

                      1                      2                      3
                      A                      A                      A
 Frequencies --     14.7468                22.1021                32.5656
 Red. masses --      5.9367                 3.2149                 5.1916
 Frc consts  --      0.0008                 0.0009                 0.0032
 IR Inten    --      0.1409                 2.5802                 1.0628

                      4                      5                      6
                      A                      A                      A
 Frequencies --     35.2878                63.0337                75.6756
 Red. masses --      4.0958                 3.1911                 3.0589
 Frc consts  --      0.0030                 0.0075                 0.0103
 IR Inten    --      0.7096                 1.9149                 5.1115

                      7                      8                      9
                      A                      A                      A
 Frequencies --     85.4952                89.9283               107.7261
 Red. masses --      3.2832                 3.2746                 3.5858
 Frc consts  --      0.0141                 0.0156                 0.0245
 IR Inten    --      1.3218                 0.3045                 4.3072

                     10                     11                     12
                      A                      A                      A
 Frequencies --    130.5012               152.4510               162.4833
 Red. masses --      3.9248                 3.5276                 3.6299
 Frc consts  --      0.0394                 0.0483                 0.0565
 IR Inten    --     10.2809                 2.2217                 1.0295

                     13                     14                     15
                      A                      A                      A
 Frequencies --    187.8988               262.8691               292.9985
 Red. masses --      5.1870                 3.8091                 3.9488
 Frc consts  --      0.1079                 0.1551                 0.1997
 IR Inten    --      0.6798                 4.5032                 5.5804

                     16                     17                     18
                      A                      A                      A
 Frequencies --    306.1321               333.2924               386.1209
 Red. masses --      1.7281                 2.0456                 3.0209
 Frc consts  --      0.0954                 0.1339                 0.2654
 IR Inten    --     41.7297                 7.9297                77.7880

                     19                     20                     21
                      A                      A                      A
 Frequencies --    420.0501               461.0600               477.1516
 Red. masses --      3.8226                 4.2875                 9.2620
 Frc consts  --      0.3974                 0.5370                 1.2424
 IR Inten    --      2.5174                 7.1351                 0.4266

                     22                     23                     24
                      A                      A                      A
 Frequencies --    517.1064               531.1938               688.1796
 Red. masses --      2.5281                 2.6008                 6.4975
 Frc consts  --      0.3983                 0.4324                 1.8130
 IR Inten    --      7.0088                10.3595                 7.8137

                     25                     26                     27
                      A                      A                      A
 Frequencies --    720.8083               730.3838               769.5912
 Red. masses --      4.9569                 1.5383                 4.2939
 Frc consts  --      1.5174                 0.4835                 1.4984
 IR Inten    --      9.8431                24.7470                 5.4210

                     28                     29                     30
                      A                      A                      A
 Frequencies --    795.2757               804.4535               822.7242
 Red. masses --      1.2345                 2.4964                 2.8912
 Frc consts  --      0.4600                 0.9518                 1.1530
 IR Inten    --      1.2050                 4.2503                 2.7539

                     31                     32                     33
                      A                      A                      A
 Frequencies --    893.0224               899.9399               909.2343
 Red. masses --      1.3378                 1.2445                 1.6270
 Frc consts  --      0.6286                 0.5938                 0.7925
 IR Inten    --      8.7406               104.0072                 9.3064

                     34                     35                     36
                      A                      A                      A
 Frequencies --    958.3747               971.6070              1021.9154
 Red. masses --      1.5444                 2.3402                 1.6582
 Frc consts  --      0.8358                 1.3016                 1.0203
 IR Inten    --      8.2983                 7.2316                10.5064

                     37                     38                     39
                      A                      A                      A
 Frequencies --   1030.5184              1032.3625              1057.8148
 Red. masses --      2.5444                 2.0209                 1.9771
 Frc consts  --      1.5920                 1.2690                 1.3035
 IR Inten    --     23.3951                20.7848                21.3174

                     40                     41                     42
                      A                      A                      A
 Frequencies --   1067.3979              1072.0969              1092.6010
 Red. masses --      1.4801                 2.4920                 2.8710
 Frc consts  --      0.9936                 1.6876                 2.0193
 IR Inten    --     16.9622                19.6929                 4.1570

                     43                     44                     45
                      A                      A                      A
 Frequencies --   1106.3807              1118.5926              1129.3689
 Red. masses --      2.4098                 2.2846                 1.2872
 Frc consts  --      1.7380                 1.6843                 0.9673
 IR Inten    --     32.1640                65.4544                 7.9902

                     46                     47                     48
                      A                      A                      A
 Frequencies --   1136.1341              1144.2296              1153.8008
 Red. masses --      1.5721                 1.6146                 1.1898
 Frc consts  --      1.1956                 1.2455                 0.9332
 IR Inten    --     15.7811                14.1772                22.4535

                     49                     50                     51
                      A                      A                      A
 Frequencies --   1197.2186              1204.9896              1236.4631
 Red. masses --      1.1741                 1.3998                 1.2736
 Frc consts  --      0.9915                 1.1975                 1.1472
 IR Inten    --     26.0001                 5.1621                19.9163

                     52                     53                     54
                      A                      A                      A
 Frequencies --   1262.8976              1272.8831              1289.2665
 Red. masses --      1.2911                 1.2875                 1.2240
 Frc consts  --      1.2132                 1.2291                 1.1987
 IR Inten    --     23.6524                15.8785                 9.5030

                     55                     56                     57
                      A                      A                      A
 Frequencies --   1298.1613              1311.5502              1315.7116
 Red. masses --      1.2744                 1.2686                 1.3945
 Frc consts  --      1.2653                 1.2857                 1.4223
 IR Inten    --      1.1418                 2.4187                 3.6942

                     58                     59                     60
                      A                      A                      A
 Frequencies --   1342.5693              1380.2593              1384.7340
 Red. masses --      1.3621                 1.4434                 1.3804
 Frc consts  --      1.4466                 1.6201                 1.5595
 IR Inten    --      1.8343                 5.6237                 0.5460

                     61                     62                     63
                      A                      A                      A
 Frequencies --   1416.8547              1425.3723              1454.1089
 Red. masses --      1.5354                 1.2197                 1.2337
 Frc consts  --      1.8161                 1.4601                 1.5370
 IR Inten    --     22.2245                58.2978                39.6294

                     64                     65                     66
                      A                      A                      A
 Frequencies --   1479.9404              1484.8753              1487.3854
 Red. masses --      1.0940                 1.1153                 1.0947
 Frc consts  --      1.4117                 1.4489                 1.4270
 IR Inten    --      9.6852                 4.5564                 0.9960

                     67                     68                     69
                      A                      A                      A
 Frequencies --   1494.4323              1521.4140              1538.6625
 Red. masses --      1.0815                 1.0853                 1.1200
 Frc consts  --      1.4231                 1.4802                 1.5623
 IR Inten    --     14.7205                 5.8874                 0.5886

                     70                     71                     72
                      A                      A                      A
 Frequencies --   1736.0724              2987.9032              2992.0098
 Red. masses --      6.7741                 1.0649                 1.0601
 Frc consts  --     12.0293                 5.6012                 5.5912
 IR Inten    --     65.9837                37.4625                24.1637

                     73                     74                     75
                      A                      A                      A
 Frequencies --   3019.7012              3029.5850              3038.9014
 Red. masses --      1.0863                 1.0634                 1.0692
 Frc consts  --      5.8360                 5.7506                 5.8178
 IR Inten    --     27.5143                20.2493                 1.9333

                     76                     77                     78
                      A                      A                      A
 Frequencies --   3041.0388              3044.1667              3046.2768
 Red. masses --      1.0704                 1.1007                 1.0901
 Frc consts  --      5.8321                 6.0099                 5.9599
 IR Inten    --     19.4925                45.3562                21.0649

                     79                     80                     81
                      A                      A                      A
 Frequencies --   3057.4943              3077.0379              3090.2518
 Red. masses --      1.0624                 1.0856                 1.1055
 Frc consts  --      5.8513                 6.0560                 6.2203
 IR Inten    --     26.2026                14.8772                31.1196

                     82                     83                     84
                      A                      A                      A
 Frequencies --   3095.1963              3136.3553              3436.8284
 Red. masses --      1.1072                 1.1054                 1.0739
 Frc consts  --      6.2497                 6.4068                 7.4734
 IR Inten    --      1.0092                13.3840                 0.4678

                     85                     86                     87
                      A                      A                      A
 Frequencies --   3440.6521              3457.1175              3802.4759
 Red. masses --      1.0756                 1.0746                 1.0659
 Frc consts  --      7.5019                 7.5668                 9.0801
 IR Inten    --      1.7802                 0.7519                21.7506

 - Thermochemistry -
 -------------------
 Temperature   298.150 Kelvin.  Pressure   1.00000 Atm.
 Atom     1 has atomic number  7 and mass  14.00307

 Molecular mass:   235.08131 amu.
 Principal axes and moments of inertia in atomic units:
                           1         2         3
     Eigenvalues --   812.57776********************
           X            1.00000  -0.00250   0.00104
           Y            0.00251   0.99984  -0.01776
           Z           -0.00100   0.01776   0.99984
 This molecule is an asymmetric top.
 Rotational symmetry number  1.
 Warning -- assumption of classical behavior for rotation
           may cause significant error
 Rotational temperatures (Kelvin)      0.10659     0.00556     0.00535
 Rotational constants (GHZ):           2.22101     0.11586     0.11152
 Zero-point vibrational energy     679499.8 (Joules/Mol)
                                  162.40435 (Kcal/Mol)
 Warning -- explicit consideration of  23 degrees of freedom as
           vibrations may cause significant error
 Vibrational temperatures:     21.22    31.80    46.85    50.77    90.69
          (Kelvin)            108.88   123.01   129.39   154.99   187.76
                              219.34   233.78   270.34   378.21   421.56
                              440.46   479.53   555.54   604.36   663.36
                              686.51   744.00   764.27   990.14  1037.08
                             1050.86  1107.27  1144.22  1157.43  1183.72
                             1284.86  1294.81  1308.19  1378.89  1397.93
                             1470.31  1482.69  1485.34  1521.96  1535.75
                             1542.51  1572.01  1591.84  1609.41  1624.91
                             1634.64  1646.29  1660.06  1722.53  1733.71
                             1778.99  1817.03  1831.39  1854.97  1867.76
                             1887.03  1893.02  1931.66  1985.89  1992.32
                             2038.54  2050.79  2092.14  2129.30  2136.40
                             2140.02  2150.15  2188.98  2213.79  2497.82
                             4298.93  4304.83  4344.68  4358.90  4372.30
                             4375.38  4379.88  4382.91  4399.05  4427.17
                             4446.18  4453.30  4512.52  4944.83  4950.33
                             4974.02  5470.91

 Zero-point correction=                           0.258808 (Hartree/Particle)
 Thermal correction to Energy=                    0.276166
 Thermal correction to Enthalpy=                  0.277110
 Thermal correction to Gibbs Free Energy=         0.208581
 Sum of electronic and zero-point Energies=          -1350.634318
 Sum of electronic and thermal Energies=             -1350.616960
 Sum of electronic and thermal Enthalpies=           -1350.616016
 Sum of electronic and thermal Free Energies=        -1350.684544

                     E (Thermal)             CV                S
                      KCal/Mol        Cal/Mol-Kelvin    Cal/Mol-Kelvin
 Total                  173.297             59.695            144.230
 Electronic               0.000              0.000              0.000
 Translational            0.889              2.981             42.266
 Rotational               0.889              2.981             33.682
 Vibrational            171.519             53.733             68.283
 Vibration     1          0.593              1.986              7.239
 Vibration     2          0.593              1.985              6.436
 Vibration     3          0.594              1.983              5.667
 Vibration     4          0.594              1.982              5.507
 Vibration     5          0.597              1.972              4.360
 Vibration     6          0.599              1.965              4.000
 Vibration     7          0.601              1.959              3.761
 Vibration     8          0.602              1.956              3.662
 Vibration     9          0.606              1.943              3.309
 Vibration    10          0.612              1.923              2.939
 Vibration    11          0.619              1.900              2.641
 Vibration    12          0.623              1.888              2.521
 Vibration    13          0.633              1.856              2.248
 Vibration    14          0.670              1.741              1.643
 Vibration    15          0.688              1.687              1.457
 Vibration    16          0.697              1.662              1.383
 Vibration    17          0.715              1.609              1.244
 Vibration    18          0.755              1.500              1.015
 Vibration    19          0.783              1.427              0.892
 Vibration    20          0.819              1.336              0.763
 Vibration    21          0.834              1.301              0.718
 Vibration    22          0.872              1.212              0.617
 Vibration    23          0.886              1.181              0.585

 Optimization completed.
    -- Stationary point found.
 Normal termination of Gaussian 16 at Sun May 28 09:00:54 2023.
