 Gaussian 16, Revision A.03,
 Gaussian 16:  ES64L-G16RevA.03 25-Dec-2016

 -----------------------------
 # opt freq b3lyp/6-31g(2df,p)
 -----------------------------

 -------------------
 Title Card Required
 -------------------
 Symbolic Z-matrix:
 Charge =  0 Multiplicity = 1

 SCF Done:  E(RB3LYP) =  -917.973681155     A.U. after   15 cycles
 SCF Done:  E(RB3LYP) =  -917.998588392     A.U. after   13 cycles
 SCF Done:  E(RB3LYP) =  -918.000640876     A.U. after   13 cycles
 SCF Done:  E(RB3LYP) =  -917.993893247     A.U. after   15 cycles
 SCF Done:  E(RB3LYP) =  -918.000832990     A.U. after   12 cycles
 SCF Done:  E(RB3LYP) =  -918.000273148     A.U. after   13 cycles
 SCF Done:  E(RB3LYP) =  -918.001522777     A.U. after   11 cycles
 SCF Done:  E(RB3LYP) =  -918.001676728     A.U. after   11 cycles
 SCF Done:  E(RB3LYP) =  -918.001739762     A.U. after   12 cycles
 SCF Done:  E(RB3LYP) =  -918.001792550     A.U. after   12 cycles
 SCF Done:  E(RB3LYP) =  -918.001843982     A.U. after   13 cycles
 SCF Done:  E(RB3LYP) =  -918.001872180     A.U. after   12 cycles
 SCF Done:  E(RB3LYP) =  -918.001909952     A.U. after   12 cycles
 SCF Done:  E(RB3LYP) =  -918.001923425     A.U. after   12 cycles
 SCF Done:  E(RB3LYP) =  -918.001930315     A.U. after   12 cycles
 SCF Done:  E(RB3LYP) =  -918.001931366     A.U. after   10 cycles
 SCF Done:  E(RB3LYP) =  -918.001931515     A.U. after    8 cycles
 SCF Done:  E(RB3LYP) =  -918.001931516     A.U. after    7 cycles
 Optimization completed.
    -- Stationary point found.
 Normal termination of Gaussian 16 at Sun May 28 18:02:04 2023.

 ----------------------------------------------------------------------
 #N Geom=AllCheck Guess=TCheck SCRF=Check GenChk RB3LYP/6-31G(2df,p) Fr
 eq
 ----------------------------------------------------------------------

 Structure from the checkpoint file:  "NdCCtCCCqSrCc1ccccc1.chk"
 -------------------
 Title Card Required
 -------------------
 Charge =  0 Multiplicity = 1

                         Standard orientation:
 ---------------------------------------------------------------------
 Center     Atomic      Atomic             Coordinates (Angstroms)
 Number     Number       Type             X           Y           Z
 ---------------------------------------------------------------------
      1          7           0       -6.199150    0.795035    0.322290
      2          6           0       -5.080181    0.447054    0.830940
      3          6           0       -3.902952    0.276396    0.043921
      4          6           0       -2.869324    0.102469   -0.554056
      5          6           0       -1.634575   -0.073159   -1.301508
      6          6           0       -0.356077   -0.125082   -0.432692
      7         16           0       -0.378493   -1.524916    0.761037
      8          6           0        0.909571   -0.099625   -1.318264
      9          6           0        2.196843    0.150920   -0.567923
     10          6           0        3.091297   -0.884791   -0.289574
     11          6           0        4.272007   -0.640499    0.407351
     12          6           0        4.576559    0.648119    0.837413
     13          6           0        3.694127    1.691026    0.563608
     14          6           0        2.516978    1.442129   -0.135381
     15          1           0       -6.906059    0.855739    1.058465
     16          1           0       -4.935178    0.252077    1.901884
     17          1           0       -1.532284    0.753709   -2.018517
     18          1           0       -1.697973   -0.987719   -1.906700
     19          1           0       -0.347426    0.750848    0.223782
     20          1           0       -0.436238   -2.507346   -0.160382
     21          1           0        0.770637    0.694839   -2.064055
     22          1           0        0.973061   -1.041340   -1.875561
     23          1           0        2.858927   -1.892139   -0.620013
     24          1           0        4.954408   -1.458655    0.613154
     25          1           0        5.496801    0.840037    1.378929
     26          1           0        3.925733    2.700150    0.888445
     27          1           0        1.839884    2.263467   -0.355075
 ---------------------------------------------------------------------

 SCF Done:  E(RB3LYP) =  -918.001931516     A.U. after    1 cycles

 The electronic state is 1-A.
 Alpha  occ. eigenvalues --  -88.87110 -14.32088 -10.24615 -10.23834 -10.22486
 Alpha  occ. eigenvalues --  -10.20275 -10.19595 -10.19486 -10.18766 -10.18701
 Alpha  occ. eigenvalues --  -10.18660 -10.18588 -10.18546 -10.18207  -7.93692
 Alpha  occ. eigenvalues --   -5.90156  -5.89804  -5.89197  -0.90490  -0.86176
 Alpha  occ. eigenvalues --   -0.83768  -0.78128  -0.75372  -0.74436  -0.71960
 Alpha  occ. eigenvalues --   -0.69511  -0.63971  -0.60978  -0.60149  -0.57945
 Alpha  occ. eigenvalues --   -0.51886  -0.50784  -0.49119  -0.47807  -0.45815
 Alpha  occ. eigenvalues --   -0.45337  -0.44977  -0.43948  -0.41967  -0.41479
 Alpha  occ. eigenvalues --   -0.40410  -0.39605  -0.36389  -0.35965  -0.35427
 Alpha  occ. eigenvalues --   -0.34015  -0.33877  -0.32692  -0.27522  -0.26539
 Alpha  occ. eigenvalues --   -0.25946  -0.25281  -0.24431  -0.23900
 Alpha virt. eigenvalues --   -0.03770  -0.00713  -0.00218   0.02218   0.03999
 Alpha virt. eigenvalues --    0.06651   0.08370   0.09757   0.10689   0.11234
 Alpha virt. eigenvalues --    0.11927   0.13485   0.13879   0.15410   0.15835

 Mulliken charges:
               1
     1  N   -0.376284
     2  C   -0.129864
     3  C    0.099827
     4  C    0.133413
     5  C   -0.382439
     6  C    0.014222
     7  S   -0.267481
     8  C   -0.337201
     9  C    0.330510
    10  C   -0.176429
    11  C   -0.092875
    12  C   -0.118849
    13  C   -0.092596
    14  C   -0.187272
    15  H    0.229820
    16  H    0.113056
    17  H    0.140122
    18  H    0.139195
    19  H    0.130388
    20  H    0.148726
    21  H    0.111283
    22  H    0.105986
    23  H    0.089640
    24  H    0.096461
    25  H    0.096902
    26  H    0.096098
    27  H    0.085640
 Sum of Mulliken charges =  -0.00000

 Dipole moment (field-independent basis, Debye):
    X=              1.9217    Y=             -0.0603    Z=             -0.1586  Tot=              1.9292
 Quadrupole moment (field-independent basis, Debye-Ang):
   XX=            -96.9806   YY=            -85.0654   ZZ=            -86.9060
   XY=              2.0463   XZ=             -8.1809   YZ=              4.5911

  Exact polarizability: 220.549 -10.116 130.410   4.886   3.415 111.421
 Approx polarizability: 296.540 -23.025 227.302   8.429   9.286 187.144

                      1                      2                      3
                      A                      A                      A
 Frequencies --     18.5894                26.5346                34.5926
 Red. masses --      5.7101                 4.3106                 3.3859
 Frc consts  --      0.0012                 0.0018                 0.0024
 IR Inten    --      6.0670                 0.2934                 7.7337

                      4                      5                      6
                      A                      A                      A
 Frequencies --     48.6337                68.1430                98.5008
 Red. masses --      5.7266                 4.2896                 4.3548
 Frc consts  --      0.0080                 0.0117                 0.0249
 IR Inten    --      1.1278                 1.1403                 4.0263

                      7                      8                      9
                      A                      A                      A
 Frequencies --    165.8495               176.9588               203.4652
 Red. masses --      4.1810                 1.2553                 2.8463
 Frc consts  --      0.0678                 0.0232                 0.0694
 IR Inten    --      9.8532                 7.6238                19.7324

                     10                     11                     12
                      A                      A                      A
 Frequencies --    212.4243               227.6877               336.8037
 Red. masses --      5.0981                 3.9492                 2.8257
 Frc consts  --      0.1355                 0.1206                 0.1889
 IR Inten    --      3.3149                 2.3348                 1.0888

                     13                     14                     15
                      A                      A                      A
 Frequencies --    337.9916               374.2194               393.6158
 Red. masses --      5.1295                 2.1058                 3.4448
 Frc consts  --      0.3453                 0.1738                 0.3145
 IR Inten    --      7.6872                 0.5953                 2.5284

                     16                     17                     18
                      A                      A                      A
 Frequencies --    415.1477               479.5785               530.7196
 Red. masses --      3.0160                 3.8591                 4.8520
 Frc consts  --      0.3063                 0.5229                 0.8052
 IR Inten    --      0.0138                 3.6256                 4.6991

                     19                     20                     21
                      A                      A                      A
 Frequencies --    596.9102               609.0376               620.3529
 Red. masses --      4.4356                 5.4049                 4.4721
 Frc consts  --      0.9311                 1.1812                 1.0140
 IR Inten    --      0.0412                 4.2274                 9.8013

                     22                     23                     24
                      A                      A                      A
 Frequencies --    631.9249               718.4798               770.8216
 Red. masses --      6.3237                 1.8393                 2.0833
 Frc consts  --      1.4878                 0.5594                 0.7293
 IR Inten    --      0.1853                23.7115                32.6618

                     25                     26                     27
                      A                      A                      A
 Frequencies --    793.3563               828.3218               843.0588
 Red. masses --      3.2236                 1.6254                 3.2172
 Frc consts  --      1.1954                 0.6571                 1.3472
 IR Inten    --     22.4685                28.5163                16.2158

                     28                     29                     30
                      A                      A                      A
 Frequencies --    862.6745               864.3438               878.3698
 Red. masses --      1.2109                 1.2617                 1.6192
 Frc consts  --      0.5310                 0.5553                 0.7361
 IR Inten    --      4.7744                 0.3035                 1.2670

                     31                     32                     33
                      A                      A                      A
 Frequencies --    925.0964               954.8769               987.4379
 Red. masses --      1.4603                 1.3450                 1.3111
 Frc consts  --      0.7363                 0.7226                 0.7532
 IR Inten    --      1.2977                 0.0854                 0.7377

                     34                     35                     36
                      A                      A                      A
 Frequencies --    999.0625              1015.0472              1032.4844
 Red. masses --      2.0784                 6.1694                 3.3044
 Frc consts  --      1.2223                 3.7451                 2.0754
 IR Inten    --      9.7176                 0.9985                10.9727

                     37                     38                     39
                      A                      A                      A
 Frequencies --   1046.3334              1053.0144              1106.8887
 Red. masses --      2.8894                 2.1969                 1.5493
 Frc consts  --      1.8638                 1.4352                 1.1184
 IR Inten    --      3.4879                 3.6945                 2.8152

                     40                     41                     42
                      A                      A                      A
 Frequencies --   1107.3053              1150.3112              1178.9898
 Red. masses --      1.2705                 2.4089                 1.1588
 Frc consts  --      0.9178                 1.8780                 0.9490
 IR Inten    --      9.3945                35.9656                 0.2475

                     43                     44                     45
                      A                      A                      A
 Frequencies --   1182.7659              1205.0237              1218.3535
 Red. masses --      1.0866                 1.1310                 1.1674
 Frc consts  --      0.8956                 0.9676                 1.0209
 IR Inten    --      0.0113                 0.4107                 4.8224

                     46                     47                     48
                      A                      A                      A
 Frequencies --   1228.4603              1262.2141              1274.0963
 Red. masses --      2.4922                 1.1916                 1.2068
 Frc consts  --      2.2159                 1.1185                 1.1542
 IR Inten    --      1.7504                35.4200                 2.3822

                     49                     50                     51
                      A                      A                      A
 Frequencies --   1318.4107              1346.0575              1349.2898
 Red. masses --      1.3899                 3.1728                 1.3956
 Frc consts  --      1.4234                 3.3870                 1.4970
 IR Inten    --      7.2273                 1.5686                 3.8583

                     52                     53                     54
                      A                      A                      A
 Frequencies --   1353.6589              1362.8164              1421.7625
 Red. masses --      1.4672                 1.4133                 1.5706
 Frc consts  --      1.5840                 1.5466                 1.8705
 IR Inten    --     24.9066                 1.0398                27.2202

                     55                     56                     57
                      A                      A                      A
 Frequencies --   1458.3346              1481.2581              1484.5261
 Red. masses --      1.0903                 1.2756                 1.7217
 Frc consts  --      1.3662                 1.6490                 2.2355
 IR Inten    --      2.5292                 2.7906                 7.9733

                     58                     59                     60
                      A                      A                      A
 Frequencies --   1528.9856              1625.2878              1645.8925
 Red. masses --      2.2513                 5.6372                 5.8022
 Frc consts  --      3.1009                 8.7736                 9.2607
 IR Inten    --     11.5486                 0.9681                 5.0322

                     61                     62                     63
                      A                      A                      A
 Frequencies --   1675.1563              2347.9906              2658.2966
 Red. masses --      6.2532                11.9105                 1.0384
 Frc consts  --     10.3387                38.6876                 4.3232
 IR Inten    --    137.9353                79.2816                 4.8217

                     64                     65                     66
                      A                      A                      A
 Frequencies --   3005.0146              3014.3781              3023.6686
 Red. masses --      1.0601                 1.0613                 1.0848
 Frc consts  --      5.6399                 5.6819                 5.8433
 IR Inten    --      6.6377                38.9706                36.5371

                     67                     68                     69
                      A                      A                      A
 Frequencies --   3037.4587              3056.9219              3076.1462
 Red. masses --      1.0980                 1.0939                 1.0905
 Frc consts  --      5.9688                 6.0230                 6.0799
 IR Inten    --      6.7712                 3.2721                18.0819

                     70                     71                     72
                      A                      A                      A
 Frequencies --   3155.8912              3168.4940              3177.7438
 Red. masses --      1.0866                 1.0847                 1.0892
 Frc consts  --      6.3761                 6.4161                 6.4801
 IR Inten    --     10.0255                 2.3546                 9.1251

                     73                     74                     75
                      A                      A                      A
 Frequencies --   3186.4659              3198.0192              3450.3128
 Red. masses --      1.0936                 1.0981                 1.0753
 Frc consts  --      6.5424                 6.6171                 7.5424
 IR Inten    --     31.5406                16.3559                 0.0747

 - Thermochemistry -
 -------------------
 Temperature   298.150 Kelvin.  Pressure   1.00000 Atm.
 Atom     1 has atomic number  7 and mass  14.00307

 Molecular mass:   203.07687 amu.
 Principal axes and moments of inertia in atomic units:
                           1         2         3
     Eigenvalues --  1122.925028358.162008636.18427
           X            1.00000   0.00034  -0.00101
           Y           -0.00026   0.99723   0.07435
           Z            0.00103  -0.07435   0.99723
 This molecule is an asymmetric top.
 Rotational symmetry number  1.
 Warning -- assumption of classical behavior for rotation
           may cause significant error
 Rotational temperatures (Kelvin)      0.07713     0.01036     0.01003
 Rotational constants (GHZ):           1.60718     0.21593     0.20897
 Zero-point vibrational energy     566450.4 (Joules/Mol)
                                  135.38489 (Kcal/Mol)
 Warning -- explicit consideration of  21 degrees of freedom as
           vibrations may cause significant error
 Vibrational temperatures:     26.75    38.18    49.77    69.97    98.04
          (Kelvin)            141.72   238.62   254.60   292.74   305.63
                              327.59   484.59   486.29   538.42   566.33
                              597.30   690.01   763.59   858.82   876.27
                              892.55   909.20  1033.73  1109.04  1141.46
                             1191.77  1212.97  1241.20  1243.60  1263.78
                             1331.01  1373.85  1420.70  1437.43  1460.43
                             1485.51  1505.44  1515.05  1592.57  1593.17
                             1655.04  1696.30  1701.74  1733.76  1752.94
                             1767.48  1816.04  1833.14  1896.90  1936.68
                             1941.33  1947.61  1960.79  2045.60  2098.22
                             2131.20  2135.90  2199.87  2338.43  2368.07
                             2410.18  3378.23  3824.70  4323.55  4337.02
                             4350.38  4370.23  4398.23  4425.89  4540.62
                             4558.76  4572.06  4584.61  4601.24  4964.23

 Zero-point correction=                           0.215750 (Hartree/Particle)
 Thermal correction to Energy=                    0.230336
 Thermal correction to Enthalpy=                  0.231280
 Thermal correction to Gibbs Free Energy=         0.170569
 Sum of electronic and zero-point Energies=           -917.786182
 Sum of electronic and thermal Energies=              -917.771595
 Sum of electronic and thermal Enthalpies=            -917.770651
 Sum of electronic and thermal Free Energies=         -917.831363

                     E (Thermal)             CV                S
                      KCal/Mol        Cal/Mol-Kelvin    Cal/Mol-Kelvin
 Total                  144.538             52.471            127.779
 Electronic               0.000              0.000              0.000
 Translational            0.889              2.981             41.830
 Rotational               0.889              2.981             32.761
 Vibrational            142.761             46.509             53.189
 Vibration     1          0.593              1.986              6.779
 Vibration     2          0.593              1.984              6.073
 Vibration     3          0.594              1.983              5.547
 Vibration     4          0.595              1.978              4.872
 Vibration     5          0.598              1.969              4.206
 Vibration     6          0.604              1.950              3.484
 Vibration     7          0.624              1.884              2.482
 Vibration     8          0.628              1.871              2.360
 Vibration     9          0.639              1.835              2.102
 Vibration    10          0.643              1.822              2.023
 Vibration    11          0.651              1.799              1.897
 Vibration    12          0.718              1.602              1.227
 Vibration    13          0.718              1.600              1.222
 Vibration    14          0.745              1.525              1.062
 Vibration    15          0.761              1.484              0.986
 Vibration    16          0.779              1.437              0.909
 Vibration    17          0.836              1.295              0.711
 Vibration    18          0.886              1.182              0.586
 Vibration    19          0.955              1.038              0.455
 Vibration    20          0.968              1.013              0.434
 Vibration    21          0.980              0.989              0.416

 Optimization completed.
    -- Stationary point found.
 Normal termination of Gaussian 16 at Sun May 28 19:18:44 2023.
