 Gaussian 16, Revision A.03,
 Gaussian 16:  ES64L-G16RevA.03 25-Dec-2016

 -----------------------------
 # opt freq b3lyp/6-31g(2df,p)
 -----------------------------

 -------------------
 Title Card Required
 -------------------
 Symbolic Z-matrix:
 Charge =  0 Multiplicity = 1

 SCF Done:  E(RB3LYP) =  -916.045387035     A.U. after   14 cycles
 SCF Done:  E(RB3LYP) =  -916.059364062     A.U. after   12 cycles
 SCF Done:  E(RB3LYP) =  -916.061560361     A.U. after   13 cycles
 SCF Done:  E(RB3LYP) =  -916.062541378     A.U. after   13 cycles
 SCF Done:  E(RB3LYP) =  -916.063129278     A.U. after   13 cycles
 SCF Done:  E(RB3LYP) =  -916.063292242     A.U. after   11 cycles
 SCF Done:  E(RB3LYP) =  -916.063321203     A.U. after   10 cycles
 SCF Done:  E(RB3LYP) =  -916.063332976     A.U. after    9 cycles
 SCF Done:  E(RB3LYP) =  -916.063334224     A.U. after    8 cycles
 SCF Done:  E(RB3LYP) =  -916.063334527     A.U. after    7 cycles
 SCF Done:  E(RB3LYP) =  -916.063334513     A.U. after    6 cycles
 Optimization completed.
    -- Stationary point found.
 Normal termination of Gaussian 16 at Sun May 28 12:47:52 2023.

 ----------------------------------------------------------------------
 #N Geom=AllCheck Guess=TCheck SCRF=Check GenChk RB3LYP/6-31G(2df,p) Fr
 eq
 ----------------------------------------------------------------------

 Structure from the checkpoint file:  "NdCqOrC1CdCCqOrCCCS1.chk"
 -------------------
 Title Card Required
 -------------------
 Charge =  0 Multiplicity = 1

                         Standard orientation:
 ---------------------------------------------------------------------
 Center     Atomic      Atomic             Coordinates (Angstroms)
 Number     Number       Type             X           Y           Z
 ---------------------------------------------------------------------
      1          7           0       -2.169632    0.323994    1.587558
      2          6           0       -2.285914    0.482216    0.333627
      3          8           0       -3.426696    0.447101   -0.403372
      4          6           0       -1.082426    0.730067   -0.556311
      5          6           0       -0.043326    1.598983    0.112554
      6          6           0        1.280843    1.484064    0.203487
      7          6           0        2.209856    0.390105   -0.277672
      8          8           0        3.535146    0.894149   -0.435103
      9          6           0        2.223462   -0.843416    0.657883
     10          6           0        0.866425   -1.368805    1.140719
     11          6           0       -0.090035   -1.934604    0.086139
     12         16           0       -0.556328   -0.859023   -1.328247
     13          1           0       -3.065273    0.146819    2.046895
     14          1           0       -4.167284    0.210271    0.168789
     15          1           0       -1.461365    1.266076   -1.435602
     16          1           0       -0.494229    2.482306    0.562725
     17          1           0        1.801230    2.291553    0.718111
     18          1           0        1.920971    0.074741   -1.279401
     19          1           0        3.880933    1.091814    0.442831
     20          1           0        2.802181   -0.567723    1.551932
     21          1           0        2.794648   -1.633644    0.155706
     22          1           0        0.341974   -0.590887    1.700901
     23          1           0        1.052561   -2.183553    1.853808
     24          1           0       -1.006256   -2.270853    0.578447
     25          1           0        0.347669   -2.802184   -0.420845
 ---------------------------------------------------------------------

 SCF Done:  E(RB3LYP) =  -916.063334513     A.U. after    1 cycles

 The electronic state is 1-A.
 Alpha  occ. eigenvalues --  -88.86798 -19.18967 -19.12602 -14.31316 -10.28827
 Alpha  occ. eigenvalues --  -10.23169 -10.22369 -10.21026 -10.18769 -10.18018
 Alpha  occ. eigenvalues --  -10.17975 -10.17972  -7.93088  -5.89594  -5.89218
 Alpha  occ. eigenvalues --   -5.88599  -1.08494  -1.00868  -0.89650  -0.82692
 Alpha  occ. eigenvalues --   -0.78548  -0.76797  -0.70702  -0.67983  -0.63402
 Alpha  occ. eigenvalues --   -0.59113  -0.57922  -0.54439  -0.52574  -0.48929
 Alpha  occ. eigenvalues --   -0.46985  -0.46052  -0.45685  -0.43461  -0.42567
 Alpha  occ. eigenvalues --   -0.41398  -0.40502  -0.40331  -0.39365  -0.35832
 Alpha  occ. eigenvalues --   -0.35195  -0.34531  -0.32609  -0.32412  -0.30036
 Alpha  occ. eigenvalues --   -0.28153  -0.28058  -0.26161  -0.24755  -0.22085
 Alpha virt. eigenvalues --    0.00351   0.01523   0.04764   0.05734   0.08398
 Alpha virt. eigenvalues --    0.08418   0.09882   0.11171   0.11994   0.13177
 Alpha virt. eigenvalues --    0.14579   0.15407   0.15946   0.17851   0.18276

 Mulliken charges:
               1
     1  N   -0.485473
     2  C    0.363611
     3  O   -0.387607
     4  C   -0.115918
     5  C   -0.041792
     6  C   -0.083508
     7  C    0.075200
     8  O   -0.447025
     9  C   -0.202751
    10  C   -0.223366
    11  C   -0.193358
    12  S   -0.161455
    13  H    0.205299
    14  H    0.290455
    15  H    0.144552
    16  H    0.098106
    17  H    0.083551
    18  H    0.125741
    19  H    0.270467
    20  H    0.081553
    21  H    0.103010
    22  H    0.150168
    23  H    0.096734
    24  H    0.127287
    25  H    0.126521
 Sum of Mulliken charges =  -0.00000

 Dipole moment (field-independent basis, Debye):
    X=             -2.4564    Y=             -0.4303    Z=              2.4181  Tot=              3.4737
 Quadrupole moment (field-independent basis, Debye-Ang):
   XX=            -68.6144   YY=            -75.3407   ZZ=            -82.7690
   XY=             -1.5223   XZ=              1.6001   YZ=             -0.3232

  Exact polarizability: 137.178  -2.657 104.780   2.500   1.269 101.851
 Approx polarizability: 193.540  -8.302 160.710   5.691   1.973 176.983

                      1                      2                      3
                      A                      A                      A
 Frequencies --     47.9502                73.3485               123.4630
 Red. masses --      6.6985                 4.4111                 3.1728
 Frc consts  --      0.0091                 0.0140                 0.0285
 IR Inten    --      1.1427                 1.9137                 1.3077

                      4                      5                      6
                      A                      A                      A
 Frequencies --    128.4514               183.8816               213.4552
 Red. masses --      4.0117                 5.0242                 6.1618
 Frc consts  --      0.0390                 0.1001                 0.1654
 IR Inten    --      0.1720                 1.7068                 0.2170

                      7                      8                      9
                      A                      A                      A
 Frequencies --    225.2482               246.8403               285.2461
 Red. masses --      6.6458                 3.4956                 1.1937
 Frc consts  --      0.1987                 0.1255                 0.0572
 IR Inten    --      2.0144                 4.4610                61.9057

                     10                     11                     12
                      A                      A                      A
 Frequencies --    308.2625               331.2651               362.1621
 Red. masses --      1.6804                 4.0753                 3.7937
 Frc consts  --      0.0941                 0.2635                 0.2932
 IR Inten    --      8.2600                 6.0336                24.2039

                     13                     14                     15
                      A                      A                      A
 Frequencies --    401.3834               471.0348               484.4074
 Red. masses --      4.6309                 1.4721                 1.8411
 Frc consts  --      0.4396                 0.1924                 0.2545
 IR Inten    --     10.0019                36.9309                38.3236

                     16                     17                     18
                      A                      A                      A
 Frequencies --    504.4145               509.0222               589.4619
 Red. masses --      3.1498                 2.5320                 4.3161
 Frc consts  --      0.4722                 0.3865                 0.8836
 IR Inten    --      6.6770                 6.5534                 9.2938

                     19                     20                     21
                      A                      A                      A
 Frequencies --    635.2349               648.0984               678.1617
 Red. masses --      2.8954                 4.1224                 4.2161
 Frc consts  --      0.6884                 1.0202                 1.1424
 IR Inten    --     28.4293                 1.6117                 1.9797

                     22                     23                     24
                      A                      A                      A
 Frequencies --    723.9813               790.2448               811.4331
 Red. masses --      1.8543                 3.1905                 1.7971
 Frc consts  --      0.5726                 1.1739                 0.6971
 IR Inten    --     21.0702                 6.7253                 6.1334

                     25                     26                     27
                      A                      A                      A
 Frequencies --    845.4700               860.3984               885.5349
 Red. masses --      2.1311                 1.3959                 2.2982
 Frc consts  --      0.8975                 0.6089                 1.0618
 IR Inten    --      3.5942                87.1837                10.2935

                     28                     29                     30
                      A                      A                      A
 Frequencies --    930.6257               960.9512               991.7146
 Red. masses --      3.0647                 2.7422                 1.2885
 Frc consts  --      1.5638                 1.4920                 0.7466
 IR Inten    --      2.7695                 8.9911                 1.1851

                     31                     32                     33
                      A                      A                      A
 Frequencies --   1013.4744              1039.9297              1059.3233
 Red. masses --      2.5838                 2.3140                 2.3880
 Frc consts  --      1.5636                 1.4744                 1.5789
 IR Inten    --     16.2675                51.7095                23.9733

                     34                     35                     36
                      A                      A                      A
 Frequencies --   1076.2381              1100.1825              1113.6012
 Red. masses --      2.6754                 1.9379                 2.6509
 Frc consts  --      1.8258                 1.3820                 1.9369
 IR Inten    --     98.8120                66.6967                 2.9806

                     37                     38                     39
                      A                      A                      A
 Frequencies --   1158.7610              1162.1554              1208.4452
 Red. masses --      1.1742                 1.2975                 1.2624
 Frc consts  --      0.9289                 1.0325                 1.0862
 IR Inten    --      8.9782               217.3322                26.5045

                     40                     41                     42
                      A                      A                      A
 Frequencies --   1220.4058              1258.0592              1270.0015
 Red. masses --      1.1550                 1.2865                 1.2657
 Frc consts  --      1.0136                 1.1997                 1.2028
 IR Inten    --      0.7857                11.5146                 7.6931

                     43                     44                     45
                      A                      A                      A
 Frequencies --   1286.3901              1310.5274              1335.4458
 Red. masses --      1.3256                 1.1985                 1.2304
 Frc consts  --      1.2924                 1.2128                 1.2928
 IR Inten    --      4.3122                 7.6084                11.9253

                     46                     47                     48
                      A                      A                      A
 Frequencies --   1339.7667              1369.2025              1398.8163
 Red. masses --      1.2458                 1.3590                 1.3612
 Frc consts  --      1.3176                 1.5010                 1.5693
 IR Inten    --      5.5262                 1.3065                 2.0470

                     49                     50                     51
                      A                      A                      A
 Frequencies --   1410.3367              1417.1059              1430.4503
 Red. masses --      1.2711                 2.2427                 1.3468
 Frc consts  --      1.4896                 2.6535                 1.6237
 IR Inten    --     26.6422                46.2248                 9.3800

                     52                     53                     54
                      A                      A                      A
 Frequencies --   1458.3162              1480.6584              1495.5405
 Red. masses --      1.0953                 1.0903                 1.0804
 Frc consts  --      1.3724                 1.4083                 1.4238
 IR Inten    --      3.9475                 1.2017                 6.6003

                     55                     56                     57
                      A                      A                      A
 Frequencies --   1728.6997              1736.3527              2996.1303
 Red. masses --      8.0447                 7.5042                 1.0658
 Frc consts  --     14.1645                13.3301                 5.6370
 IR Inten    --     23.4321               137.3810                34.7555

                     58                     59                     60
                      A                      A                      A
 Frequencies --   3020.0326              3034.2509              3043.0732
 Red. masses --      1.0710                 1.0816                 1.0603
 Frc consts  --      5.7550                 5.8673                 5.7850
 IR Inten    --     38.7744                 1.2871                24.8427

                     61                     62                     63
                      A                      A                      A
 Frequencies --   3052.7533              3090.6976              3108.4043
 Red. masses --      1.0945                 1.1008                 1.0937
 Frc consts  --      6.0096                 6.1954                 6.2261
 IR Inten    --     21.2795                10.2743                 7.3942

                     64                     65                     66
                      A                      A                      A
 Frequencies --   3114.3564              3124.4495              3141.6442
 Red. masses --      1.0830                 1.0852                 1.0929
 Frc consts  --      6.1888                 6.2415                 6.3556
 IR Inten    --      4.7406                 6.6064                24.4006

                     67                     68                     69
                      A                      A                      A
 Frequencies --   3450.7552              3787.6243              3787.8998
 Red. masses --      1.0751                 1.0651                 1.0658
 Frc consts  --      7.5427                 9.0031                 9.0099
 IR Inten    --      6.3813                35.5917                 7.1901

 - Thermochemistry -
 -------------------
 Temperature   298.150 Kelvin.  Pressure   1.00000 Atm.
 Atom     1 has atomic number  7 and mass  14.00307

 Molecular mass:   187.06670 amu.
 Principal axes and moments of inertia in atomic units:
                           1         2         3
     Eigenvalues --  1298.793533211.679753491.10668
           X            0.99998  -0.00584   0.00382
           Y            0.00604   0.99839  -0.05646
           Z           -0.00348   0.05648   0.99840
 This molecule is an asymmetric top.
 Rotational symmetry number  1.
 Warning -- assumption of classical behavior for rotation
           may cause significant error
 Rotational temperatures (Kelvin)      0.06669     0.02697     0.02481
 Rotational constants (GHZ):           1.38955     0.56193     0.51695
 Zero-point vibrational energy     543591.5 (Joules/Mol)
                                  129.92149 (Kcal/Mol)
 Warning -- explicit consideration of  18 degrees of freedom as
           vibrations may cause significant error
 Vibrational temperatures:     68.99   105.53   177.64   184.81   264.56
          (Kelvin)            307.11   324.08   355.15   410.41   443.52
                              476.62   521.07   577.50   677.71   696.95
                              725.74   732.37   848.10   913.96   932.47
                              975.72  1041.65  1136.99  1167.47  1216.44
                             1237.92  1274.09  1338.96  1382.59  1426.86
                             1458.16  1496.23  1524.13  1548.47  1582.92
                             1602.22  1667.20  1672.08  1738.68  1755.89
                             1810.07  1827.25  1850.83  1885.56  1921.41
                             1927.63  1969.98  2012.58  2029.16  2038.90
                             2058.10  2098.19  2130.34  2151.75  2487.21
                             2498.22  4310.76  4345.15  4365.61  4378.30
                             4392.23  4446.82  4472.30  4480.86  4495.39
                             4520.13  4964.87  5449.55  5449.94

 Zero-point correction=                           0.207043 (Hartree/Particle)
 Thermal correction to Energy=                    0.219327
 Thermal correction to Enthalpy=                  0.220272
 Thermal correction to Gibbs Free Energy=         0.168727
 Sum of electronic and zero-point Energies=           -915.856291
 Sum of electronic and thermal Energies=              -915.844007
 Sum of electronic and thermal Enthalpies=            -915.843063
 Sum of electronic and thermal Free Energies=         -915.894607

                     E (Thermal)             CV                S
                      KCal/Mol        Cal/Mol-Kelvin    Cal/Mol-Kelvin
 Total                  137.630             47.337            108.485
 Electronic               0.000              0.000              0.000
 Translational            0.889              2.981             41.585
 Rotational               0.889              2.981             31.055
 Vibrational            135.853             41.375             35.845
 Vibration     1          0.595              1.978              4.900
 Vibration     2          0.599              1.967              4.061
 Vibration     3          0.610              1.929              3.045
 Vibration     4          0.611              1.925              2.969
 Vibration     5          0.631              1.862              2.289
 Vibration     6          0.644              1.820              2.014
 Vibration     7          0.650              1.803              1.916
 Vibration     8          0.661              1.768              1.753
 Vibration     9          0.683              1.701              1.502
 Vibration    10          0.698              1.658              1.372
 Vibration    11          0.714              1.613              1.254
 Vibration    12          0.736              1.550              1.113
 Vibration    13          0.767              1.467              0.958
 Vibration    14          0.828              1.314              0.735
 Vibration    15          0.841              1.285              0.698
 Vibration    16          0.860              1.240              0.647
 Vibration    17          0.864              1.230              0.636
 Vibration    18          0.947              1.054              0.468

 Optimization completed.
    -- Stationary point found.
 Normal termination of Gaussian 16 at Sun May 28 14:09:51 2023.
