 Gaussian 16, Revision A.03,
 Gaussian 16:  ES64L-G16RevA.03 25-Dec-2016

 -----------------------------
 # opt freq b3lyp/6-31g(2df,p)
 -----------------------------

 -------------------
 Title Card Required
 -------------------
 Symbolic Z-matrix:
 Charge =  0 Multiplicity = 1

 SCF Done:  E(RB3LYP) =  -2036.09055528     A.U. after   20 cycles
 SCF Done:  E(RB3LYP) =  -2036.09055528     A.U. after   20 cycles
 SCF Done:  E(RB3LYP) =  -2036.12712204     A.U. after   16 cycles
 SCF Done:  E(RB3LYP) =  -2036.12712204     A.U. after   16 cycles
 SCF Done:  E(RB3LYP) =  -2036.16610988     A.U. after   16 cycles
 SCF Done:  E(RB3LYP) =  -2036.16610988     A.U. after   16 cycles
 SCF Done:  E(RB3LYP) =  -2036.19218153     A.U. after   15 cycles
 SCF Done:  E(RB3LYP) =  -2036.19218153     A.U. after   15 cycles
 SCF Done:  E(RB3LYP) =  -2036.20559169     A.U. after   14 cycles
 SCF Done:  E(RB3LYP) =  -2036.20559169     A.U. after   14 cycles
 SCF Done:  E(RB3LYP) =  -2036.22582355     A.U. after    9 cycles
 SCF Done:  E(RB3LYP) =  -2036.22582355     A.U. after    9 cycles
 SCF Done:  E(RB3LYP) =  -2036.22582407     A.U. after    9 cycles
 SCF Done:  E(RB3LYP) =  -2036.22582407     A.U. after    9 cycles
 SCF Done:  E(RB3LYP) =  -2036.22582432     A.U. after    8 cycles
 SCF Done:  E(RB3LYP) =  -2036.22582432     A.U. after    8 cycles
 SCF Done:  E(RB3LYP) =  -2036.22582438     A.U. after    7 cycles
 Optimization completed.
    -- Stationary point found.
 Normal termination of Gaussian 16 at Sun May 28 01:25:23 2023.

 ----------------------------------------------------------------------
 #N Geom=AllCheck Guess=TCheck SCRF=Check GenChk RB3LYP/6-31G(2df,p) Fr
 eq
 ----------------------------------------------------------------------

 Structure from the checkpoint file:  "NSCCdCS1dCCdCCdC1SCCt[SH].chk"
 -------------------
 Title Card Required
 -------------------
 Charge =  0 Multiplicity = 1

 SCF Done:  E(RB3LYP) =  -2036.22582438     A.U. after    7 cycles
 SCF Done:  E(RB3LYP) =  -2036.22582438     A.U. after    1 cycles
 Optimization completed.
    -- Stationary point found.
 Normal termination of Gaussian 16 at Sun May 28 01:30:01 2023.

 ----------------------------------------------------------------------
 #N Geom=AllCheck Guess=TCheck SCRF=Check GenChk RB3LYP/6-31G(2df,p) Fr
 eq
 ----------------------------------------------------------------------

 Structure from the checkpoint file:  "NSCCdCS1dCCdCCdC1SCCt[SH].chk"
 -------------------
 Title Card Required
 -------------------
 Charge =  0 Multiplicity = 1

                         Standard orientation:
 ---------------------------------------------------------------------
 Center     Atomic      Atomic             Coordinates (Angstroms)
 Number     Number       Type             X           Y           Z
 ---------------------------------------------------------------------
      1          7           0       -5.634241    1.771733    0.678482
      2         16           0       -4.312710    1.367586   -0.347105
      3          6           0       -3.613617   -0.063900    0.586581
      4          6           0       -2.185070   -0.253166    0.187787
      5          6           0       -1.743475   -1.274058   -0.537046
      6         16           0       -0.020131   -1.477262   -1.078860
      7          6           0        0.410820   -3.029780   -0.407374
      8          6           0        0.729163   -3.104368    0.923740
      9          6           0        0.944560   -1.994025    1.762054
     10          6           0        1.136622   -0.723732    1.228371
     11          6           0        0.903200   -0.353742   -0.098056
     12         16           0        1.532908    1.073964   -0.891793
     13          6           0        3.337000    0.642436   -1.248371
     14          6           0        4.459200    1.043411   -0.374641
     15         16           0        4.241907    1.996514    0.943082
     16          1           0       -6.513508    1.660540    0.187241
     17          1           0       -5.550284    2.728701    1.000987
     18          1           0       -4.211159   -0.957944    0.395216
     19          1           0       -3.697304    0.204060    1.643094
     20          1           0       -1.481682    0.515607    0.499523
     21          1           0       -2.371118   -2.083892   -0.900450
     22          1           0        0.473555   -3.847592   -1.110787
     23          1           0        0.914730   -4.095935    1.332400
     24          1           0        1.154021   -2.158713    2.811454
     25          1           0        1.577021    0.040853    1.864469
     26          1           0        3.552265    1.077077   -2.234484
     27          1           0        3.371140   -0.443173   -1.394590
     28          1           0        2.880008    2.250990    1.013112
 ---------------------------------------------------------------------

 SCF Done:  E(RB3LYP) =  -2036.22582438     A.U. after    1 cycles

 The electronic state is 1-A.
 Alpha  occ. eigenvalues --  -88.96427 -88.90888 -88.89388 -88.87403 -14.34821
 Alpha  occ. eigenvalues --  -10.22158 -10.21981 -10.21879 -10.21563 -10.21477
 Alpha  occ. eigenvalues --  -10.21012 -10.19754 -10.19655 -10.19654 -10.16741
 Alpha  occ. eigenvalues --   -8.01707  -7.97335  -7.95332  -7.93532  -5.98018
 Alpha  occ. eigenvalues --   -5.97995  -5.97543  -5.93686  -5.93255  -5.93180
 Alpha  occ. eigenvalues --   -5.91921  -5.91501  -5.90781  -5.90015  -5.89639
 Alpha  occ. eigenvalues --   -5.89139  -0.89931  -0.88449  -0.82740  -0.81557
 Alpha  occ. eigenvalues --   -0.78109  -0.77916  -0.73850  -0.72142  -0.67963
 Alpha  occ. eigenvalues --   -0.63771  -0.61477  -0.59403  -0.56679  -0.54007
 Alpha  occ. eigenvalues --   -0.50883  -0.50241  -0.49233  -0.46973  -0.45816
 Alpha  occ. eigenvalues --   -0.45309  -0.44647  -0.44506  -0.43506  -0.42134
 Alpha  occ. eigenvalues --   -0.40105  -0.39557  -0.37785  -0.37050  -0.36574
 Alpha  occ. eigenvalues --   -0.34703  -0.33599  -0.32725  -0.31515  -0.30937
 Alpha  occ. eigenvalues --   -0.27850  -0.26312  -0.25422  -0.23270  -0.23131
 Alpha  occ. eigenvalues --   -0.21657  -0.17854
 Alpha virt. eigenvalues --   -0.06233  -0.03165  -0.01881   0.01964   0.03028
 Alpha virt. eigenvalues --    0.03575   0.04050   0.05029   0.05932   0.06967
 Alpha virt. eigenvalues --    0.09453   0.09962   0.10710   0.10977   0.11689

 Mulliken charges:
               1
     1  N   -0.502539
     2  S   -0.076612
     3  C   -0.238885
     4  C   -0.027560
     5  C   -0.134409
     6  S    0.182284
     7  C   -0.248514
     8  C   -0.033432
     9  C   -0.147814
    10  C   -0.087423
    11  C    0.013088
    12  S   -0.230965
    13  C   -0.244683
    14  C   -0.069212
    15  S   -0.067098
    16  H    0.258579
    17  H    0.258882
    18  H    0.125140
    19  H    0.145405
    20  H    0.132630
    21  H    0.118561
    22  H    0.117873
    23  H    0.103742
    24  H    0.081745
    25  H    0.104753
    26  H    0.167666
    27  H    0.168235
    28  H    0.130561
 Sum of Mulliken charges =  -0.00000

 Dipole moment (field-independent basis, Debye):
    X=             -4.0097    Y=             -0.8560    Z=              0.7241  Tot=              4.1635
 Quadrupole moment (field-independent basis, Debye-Ang):
   XX=           -117.4107   YY=           -107.9317   ZZ=           -115.5823
   XY=             -5.8901   XZ=             -2.2008   YZ=              4.8051

  Exact polarizability: 238.338   4.277 207.321   3.409   4.489 162.321
 Approx polarizability: 316.871   4.058 362.433   1.757  23.278 316.218

                           ! Non-Optimized Parameters !
 Normal termination of Gaussian 16 at Sun May 28 03:05:16 2023.

                      1                      2                      3
                      A                      A                      A
 Frequencies --     19.4623                29.1637                33.8460
 Red. masses --      9.1969                 6.2947                 5.9528
 Frc consts  --      0.0021                 0.0032                 0.0040
 IR Inten    --      0.0096                 0.0300                 0.1782

                      4                      5                      6
                      A                      A                      A
 Frequencies --     37.9855                43.0562                74.8169
 Red. masses --      5.2786                 6.1742                 6.1896
 Frc consts  --      0.0045                 0.0067                 0.0204
 IR Inten    --      0.5641                 0.4433                 0.6124

                      7                      8                      9
                      A                      A                      A
 Frequencies --     78.7126               115.7030               139.0909
 Red. masses --      4.5505                 3.6694                 3.4535
 Frc consts  --      0.0166                 0.0289                 0.0394
 IR Inten    --      0.6305                 1.1443                 6.8815

                     10                     11                     12
                      A                      A                      A
 Frequencies --    149.2781               182.9130               229.2402
 Red. masses --      5.1552                 2.3870                 4.8582
 Frc consts  --      0.0677                 0.0471                 0.1504
 IR Inten    --      6.4948                 6.1213                 0.8476

                     13                     14                     15
                      A                      A                      A
 Frequencies --    241.0107               257.7381               275.6488
 Red. masses --      2.9932                 3.6994                 5.5382
 Frc consts  --      0.1024                 0.1448                 0.2479
 IR Inten    --      0.8931                12.7773                 1.4857

                     16                     17                     18
                      A                      A                      A
 Frequencies --    310.8132               336.5114               352.8606
 Red. masses --      3.0167                 1.1622                 6.7287
 Frc consts  --      0.1717                 0.0775                 0.4936
 IR Inten    --      0.6780                24.9678                13.8194

                     19                     20                     21
                      A                      A                      A
 Frequencies --    391.1091               409.7778               429.5944
 Red. masses --      3.8822                 4.9726                 5.2023
 Frc consts  --      0.3499                 0.4920                 0.5657
 IR Inten    --      5.5558                 2.5486                 3.0803

                     22                     23                     24
                      A                      A                      A
 Frequencies --    470.2332               499.3589               547.3271
 Red. masses --      4.8747                 6.1487                 2.1639
 Frc consts  --      0.6351                 0.9033                 0.3819
 IR Inten    --      6.3432                 2.9329                25.6237

                     25                     26                     27
                      A                      A                      A
 Frequencies --    563.4923               596.2380               607.4799
 Red. masses --      1.8893                 4.0117                 2.5749
 Frc consts  --      0.3534                 0.8403                 0.5599
 IR Inten    --     11.4377                 4.3812               128.6444

                     28                     29                     30
                      A                      A                      A
 Frequencies --    624.1040               661.1117               687.6260
 Red. masses --      2.8580                 1.8019                 4.2363
 Frc consts  --      0.6559                 0.4640                 1.1802
 IR Inten    --     25.7255                18.6998                 5.4897

                     31                     32                     33
                      A                      A                      A
 Frequencies --    708.6208               717.9817               736.8538
 Red. masses --      2.9367                 2.7411                 6.1443
 Frc consts  --      0.8688                 0.8325                 1.9656
 IR Inten    --      6.9395                64.8327                57.3819

                     34                     35                     36
                      A                      A                      A
 Frequencies --    770.2377               804.3160               822.3684
 Red. masses --      1.8328                 1.9639                 2.9115
 Frc consts  --      0.6406                 0.7486                 1.1601
 IR Inten    --      4.1044                 8.2558                 8.4850

                     37                     38                     39
                      A                      A                      A
 Frequencies --    837.2390               889.8230               914.7863
 Red. masses --      2.8620                 1.7640                 1.5700
 Frc consts  --      1.1820                 0.8229                 0.7741
 IR Inten    --      8.7889                46.0034                 2.5447

                     40                     41                     42
                      A                      A                      A
 Frequencies --    932.7523               936.9766               957.0186
 Red. masses --      1.4037                 1.3374                 1.2946
 Frc consts  --      0.7195                 0.6918                 0.6986
 IR Inten    --     27.8552                 7.5758                 1.6570

                     43                     44                     45
                      A                      A                      A
 Frequencies --    968.6596               997.2568              1029.3626
 Red. masses --      5.6576                 1.1255                 2.6237
 Frc consts  --      3.1277                 0.6595                 1.6379
 IR Inten    --     14.5188                18.3508                 3.5055

                     46                     47                     48
                      A                      A                      A
 Frequencies --   1050.5608              1106.7533              1111.2109
 Red. masses --      2.0258                 2.4276                 1.1097
 Frc consts  --      1.3173                 1.7520                 0.8073
 IR Inten    --      1.9402                29.7725                 0.9105

                     49                     50                     51
                      A                      A                      A
 Frequencies --   1127.2313              1144.5026              1148.2456
 Red. masses --      1.3125                 1.3261                 1.4020
 Frc consts  --      0.9826                 1.0235                 1.0891
 IR Inten    --      2.5348                12.3346                10.5731

                     52                     53                     54
                      A                      A                      A
 Frequencies --   1186.4779              1206.2817              1208.7183
 Red. masses --      1.1527                 1.3855                 1.2734
 Frc consts  --      0.9560                 1.1878                 1.0962
 IR Inten    --     10.4514                68.3401                16.9916

                     55                     56                     57
                      A                      A                      A
 Frequencies --   1248.6112              1257.9392              1314.9755
 Red. masses --      1.4916                 1.2685                 1.2341
 Frc consts  --      1.3702                 1.1827                 1.2572
 IR Inten    --     57.8124                23.6154                15.4742

                     58                     59                     60
                      A                      A                      A
 Frequencies --   1336.8488              1362.0495              1446.3275
 Red. masses --      1.5206                 1.0706                 3.3464
 Frc consts  --      1.6011                 1.1702                 4.1244
 IR Inten    --     27.3801                11.2297               151.3935

                     61                     62                     63
                      A                      A                      A
 Frequencies --   1475.5164              1492.8997              1595.3375
 Red. masses --      1.1089                 2.9246                 4.7700
 Frc consts  --      1.4224                 3.8404                 7.1527
 IR Inten    --      1.8183                40.9826                44.6231

                     64                     65                     66
                      A                      A                      A
 Frequencies --   1620.3354              1684.2427              2322.3021
 Red. masses --      1.0806                 6.4627                 1.0387
 Frc consts  --      1.6715                10.8013                 3.3005
 IR Inten    --      4.7338                 4.4303                53.6358

                     67                     68                     69
                      A                      A                      A
 Frequencies --   3025.2408              3057.2076              3075.2712
 Red. masses --      1.0616                 1.0557                 1.0981
 Frc consts  --      5.7244                 5.8136                 6.1190
 IR Inten    --      9.2740                11.8377                 1.9294

                     70                     71                     72
                      A                      A                      A
 Frequencies --   3115.3732              3146.5375              3153.4462
 Red. masses --      1.1086                 1.0861                 1.0869
 Frc consts  --      6.3396                 6.3357                 6.3680
 IR Inten    --      5.3726                11.4345                 6.6542

                     73                     74                     75
                      A                      A                      A
 Frequencies --   3163.3735              3166.4776              3204.2222
 Red. masses --      1.0856                 1.0946                 1.0915
 Frc consts  --      6.4005                 6.4662                 6.6028
 IR Inten    --      1.1431                 7.1554                11.0854

                     76                     77                     78
                      A                      A                      A
 Frequencies --   3227.7972              3513.5980              3607.1161
 Red. masses --      1.0923                 1.0460                 1.0983
 Frc consts  --      6.7051                 7.6086                 8.4193
 IR Inten    --      2.4949                11.1978                16.4446

 - Thermochemistry -
 -------------------
 Temperature   298.150 Kelvin.  Pressure   1.00000 Atm.
 Atom     1 has atomic number  7 and mass  14.00307

 Molecular mass:   274.99309 amu.
 Principal axes and moments of inertia in atomic units:
                           1         2         3
     Eigenvalues --  3360.018039757.03861**********
           X            0.99993  -0.00964  -0.00694
           Y            0.00962   0.99995  -0.00297
           Z            0.00697   0.00290   0.99997
 This molecule is an asymmetric top.
 Rotational symmetry number  1.
 Warning -- assumption of classical behavior for rotation
           may cause significant error
 Rotational temperatures (Kelvin)      0.02578     0.00888     0.00752
 Rotational constants (GHZ):           0.53712     0.18497     0.15678
 Zero-point vibrational energy     534267.7 (Joules/Mol)
                                  127.69305 (Kcal/Mol)
 Warning -- explicit consideration of  27 degrees of freedom as
           vibrations may cause significant error
 Vibrational temperatures:     28.00    41.96    48.70    54.65    61.95
          (Kelvin)            107.64   113.25   166.47   200.12   214.78
                              263.17   329.83   346.76   370.83   396.60
                              447.19   484.16   507.69   562.72   589.58
                              618.09   676.56   718.47   787.48   810.74
                              857.85   874.03   897.95   951.19   989.34
                             1019.55  1033.02  1060.17  1108.20  1157.23
                             1183.20  1204.60  1280.26  1316.17  1342.02
                             1348.10  1376.94  1393.69  1434.83  1481.02
                             1511.52  1592.37  1598.78  1621.83  1646.68
                             1652.07  1707.08  1735.57  1739.08  1796.47
                             1809.89  1891.96  1923.43  1959.69  2080.94
                             2122.94  2147.95  2295.33  2331.30  2423.25
                             3341.27  4352.65  4398.64  4424.63  4482.33
                             4527.17  4537.11  4551.39  4555.85  4610.16
                             4644.08  5055.28  5189.84

 Zero-point correction=                           0.203492 (Hartree/Particle)
 Thermal correction to Energy=                    0.221633
 Thermal correction to Enthalpy=                  0.222577
 Thermal correction to Gibbs Free Energy=         0.153350
 Sum of electronic and zero-point Energies=          -2036.022333
 Sum of electronic and thermal Energies=             -2036.004191
 Sum of electronic and thermal Enthalpies=           -2036.003247
 Sum of electronic and thermal Free Energies=        -2036.072475

                     E (Thermal)             CV                S
                      KCal/Mol        Cal/Mol-Kelvin    Cal/Mol-Kelvin
 Total                  139.077             64.998            145.701
 Electronic               0.000              0.000              0.000
 Translational            0.889              2.981             42.733
 Rotational               0.889              2.981             34.289
 Vibrational            137.299             59.036             68.679
 Vibration     1          0.593              1.986              6.688
 Vibration     2          0.593              1.984              5.886
 Vibration     3          0.594              1.983              5.590
 Vibration     4          0.594              1.982              5.361
 Vibration     5          0.595              1.980              5.113
 Vibration     6          0.599              1.966              4.022
 Vibration     7          0.600              1.963              3.923
 Vibration     8          0.608              1.936              3.171
 Vibration     9          0.615              1.914              2.816
 Vibration    10          0.618              1.903              2.681
 Vibration    11          0.630              1.863              2.298
 Vibration    12          0.652              1.796              1.885
 Vibration    13          0.658              1.778              1.795
 Vibration    14          0.667              1.750              1.677
 Vibration    15          0.677              1.718              1.561
 Vibration    16          0.700              1.653              1.358
 Vibration    17          0.717              1.603              1.229
 Vibration    18          0.729              1.569              1.153
 Vibration    19          0.759              1.489              0.996
 Vibration    20          0.774              1.449              0.927
 Vibration    21          0.791              1.406              0.860
 Vibration    22          0.827              1.316              0.737
 Vibration    23          0.855              1.251              0.660
 Vibration    24          0.903              1.146              0.550
 Vibration    25          0.919              1.110              0.517
 Vibration    26          0.954              1.040              0.456
 Vibration    27          0.966              1.016              0.437

                           ! Non-Optimized Parameters !
 Normal termination of Gaussian 16 at Sun May 28 03:09:23 2023.
