 Gaussian 16, Revision A.03,
 Gaussian 16:  ES64L-G16RevA.03 25-Dec-2016

 -----------------------------
 # opt freq b3lyp/6-31g(2df,p)
 -----------------------------

 -------------------
 Title Card Required
 -------------------
 Symbolic Z-matrix:
 Charge =  0 Multiplicity = 1

 SCF Done:  E(RB3LYP) =  -700.736710452     A.U. after   24 cycles
 SCF Done:  E(RB3LYP) =  -700.807405202     A.U. after   14 cycles
 SCF Done:  E(RB3LYP) =  -700.894146575     A.U. after   14 cycles
 SCF Done:  E(RB3LYP) =  -700.905809277     A.U. after   13 cycles
 SCF Done:  E(RB3LYP) =  -700.910422694     A.U. after   12 cycles
 SCF Done:  E(RB3LYP) =  -700.911089151     A.U. after   11 cycles
 SCF Done:  E(RB3LYP) =  -700.911255891     A.U. after   10 cycles
 SCF Done:  E(RB3LYP) =  -700.911311075     A.U. after   10 cycles
 SCF Done:  E(RB3LYP) =  -700.911330640     A.U. after    9 cycles
 SCF Done:  E(RB3LYP) =  -700.911343804     A.U. after    9 cycles
 SCF Done:  E(RB3LYP) =  -700.911348174     A.U. after    8 cycles
 Optimization completed.
    -- Stationary point found.
 Normal termination of Gaussian 16 at Mon May 22 19:08:38 2023.

 ----------------------------------------------------------------------
 #N Geom=AllCheck Guess=TCheck SCRF=Check GenChk RB3LYP/6-31G(2df,p) Fr
 eq
 ----------------------------------------------------------------------

 Structure from the checkpoint file:  "Oc1ncc2cqcccnc[nH]o1rCdC2.chk"
 -------------------
 Title Card Required
 -------------------
 Charge =  0 Multiplicity = 1

                         Standard orientation:
 ---------------------------------------------------------------------
 Center     Atomic      Atomic             Coordinates (Angstroms)
 Number     Number       Type             X           Y           Z
 ---------------------------------------------------------------------
      1          8           0        2.962457    2.385683    0.000554
      2          6           0        2.025361    1.411271   -0.000490
      3          7           0        0.795595    1.763048   -0.000310
      4          6           0       -0.223296    0.833260   -0.000898
      5          6           0       -1.559918    1.039300   -0.000222
      6          6           0       -2.781507    0.110585   -0.000122
      7          6           0       -2.896996   -1.251619   -0.000270
      8          6           0       -1.583458   -1.835519    0.000017
      9          6           0       -0.619280   -2.793034   -0.000117
     10          7           0        0.615009   -2.148349    0.000305
     11          6           0        1.852598   -2.219643    0.000636
     12          7           0        2.759764   -1.141037    0.000419
     13          8           0        2.816399    0.287701   -0.000811
     14          6           0       -3.616953    1.325086    0.000322
     15          6           0       -2.533922    2.153905    0.000647
     16          1           0        2.449458    3.205294    0.000916
     17          1           0        0.160257   -0.175035   -0.002036
     18          1           0       -3.854361   -1.762566   -0.000606
     19          1           0       -0.994105   -0.967251    0.001418
     20          1           0       -0.703986   -3.878240   -0.000899
     21          1           0        2.508955   -3.109067    0.001046
     22          1           0        3.737969   -1.374143    0.000585
     23          1           0       -4.685630    1.487529    0.000583
     24          1           0       -2.417760    3.229227    0.001121
 ---------------------------------------------------------------------

 SCF Done:  E(RB3LYP) =  -700.911348174     A.U. after    1 cycles

 The electronic state is 1-A.
 Alpha  occ. eigenvalues --  -19.22732 -19.18187 -14.41882 -14.31845 -14.30860
 Alpha  occ. eigenvalues --  -10.34340 -10.27173 -10.21490 -10.20545 -10.20157
 Alpha  occ. eigenvalues --  -10.19601 -10.19527 -10.18947 -10.18847 -10.16295
 Alpha  occ. eigenvalues --   -1.13215  -1.06403  -0.94025  -0.91973  -0.87472
 Alpha  occ. eigenvalues --   -0.87356  -0.79192  -0.73893  -0.72393  -0.68072
 Alpha  occ. eigenvalues --   -0.61415  -0.60509  -0.58394  -0.56802  -0.53502
 Alpha  occ. eigenvalues --   -0.53030  -0.52339  -0.48935  -0.47859  -0.47747
 Alpha  occ. eigenvalues --   -0.46932  -0.45423  -0.41603  -0.41002  -0.39678
 Alpha  occ. eigenvalues --   -0.38156  -0.38019  -0.36017  -0.35539  -0.33892
 Alpha  occ. eigenvalues --   -0.32115  -0.31914  -0.29939  -0.26512  -0.25053
 Alpha  occ. eigenvalues --   -0.23023  -0.20370  -0.18087
 Alpha virt. eigenvalues --   -0.04956  -0.01788   0.00295   0.02384   0.07134
 Alpha virt. eigenvalues --    0.07455   0.10065   0.10451   0.12832   0.13457
 Alpha virt. eigenvalues --    0.14789   0.15138   0.15246   0.16407   0.17170

 Mulliken charges:
               1
     1  O   -0.375425
     2  C    0.514921
     3  N   -0.463162
     4  C   -0.102815
     5  C    0.181267
     6  C    0.316936
     7  C   -0.416773
     8  C    0.126345
     9  C   -0.211344
    10  N   -0.232527
    11  C    0.116886
    12  N   -0.099937
    13  O   -0.320556
    14  C   -0.230019
    15  C   -0.206987
    16  H    0.312043
    17  H    0.146810
    18  H    0.098318
    19  H    0.124918
    20  H    0.100835
    21  H    0.103857
    22  H    0.276219
    23  H    0.118399
    24  H    0.121793
 Sum of Mulliken charges =  -0.00000

 Dipole moment (field-independent basis, Debye):
    X=              0.9635    Y=             -0.5719    Z=              0.0008  Tot=              1.1204
 Quadrupole moment (field-independent basis, Debye-Ang):
   XX=            -71.7536   YY=            -72.4156   ZZ=            -88.3760
   XY=             -7.4272   XZ=              0.0024   YZ=              0.0051

  Exact polarizability: 240.996 -20.131 188.556   0.001   0.012  55.468
 Approx polarizability: 462.336 -53.866 327.831  -0.013   0.028  93.987

 ******    4 imaginary frequencies (negative Signs) ******

                      1                      2                      3
                      A                      A                      A
 Frequencies --   -530.7455              -387.4482              -189.9330
 Red. masses --      1.2738                 4.8016                 2.4209
 Frc consts  --      0.2114                 0.4247                 0.0515
 IR Inten    --      3.5290                34.7937                42.2794

                      4                      5                      6
                      A                      A                      A
 Frequencies --    -58.8845                53.7432               127.9058
 Red. masses --      3.4410                 4.7465                 5.2906
 Frc consts  --      0.0070                 0.0081                 0.0510
 IR Inten    --      0.1702                 2.8668                 2.4238

                      7                      8                      9
                      A                      A                      A
 Frequencies --    153.9360               205.8744               225.7304
 Red. masses --      7.2246                 6.7998                 4.3969
 Frc consts  --      0.1009                 0.1698                 0.1320
 IR Inten    --      7.6650                 1.2574                 0.3267

                     10                     11                     12
                      A                      A                      A
 Frequencies --    278.4531               283.2625               310.7522
 Red. masses --      5.3499                 7.4912                 7.6595
 Frc consts  --      0.2444                 0.3541                 0.4358
 IR Inten    --      0.2619                 5.5217                18.6976

                     13                     14                     15
                      A                      A                      A
 Frequencies --    337.7561               390.4753               418.0685
 Red. masses --      1.5642                 3.5161                 2.7691
 Frc consts  --      0.1051                 0.3159                 0.2852
 IR Inten    --     12.2725                11.1523                 9.0747

                     16                     17                     18
                      A                      A                      A
 Frequencies --    428.2542               463.4938               504.8931
 Red. masses --      5.2153                 5.2400                 6.6039
 Frc consts  --      0.5636                 0.6632                 0.9919
 IR Inten    --     10.8017                20.4983                 4.6143

                     19                     20                     21
                      A                      A                      A
 Frequencies --    513.4047               602.8163               622.8027
 Red. masses --      1.1234                 4.3830                 8.5264
 Frc consts  --      0.1745                 0.9384                 1.9486
 IR Inten    --     80.8603                 4.6383                 1.1966

                     22                     23                     24
                      A                      A                      A
 Frequencies --    666.4975               673.5466               740.9413
 Red. masses --      7.6255                 5.3908                 4.6294
 Frc consts  --      1.9958                 1.4409                 1.4974
 IR Inten    --     32.8612                28.9161                 0.9859

                     25                     26                     27
                      A                      A                      A
 Frequencies --    760.2462               772.1661               787.3529
 Red. masses --      3.0200                 6.1331                 1.3544
 Frc consts  --      1.0284                 2.1545                 0.4947
 IR Inten    --      0.0009                 9.0835                23.2987

                     28                     29                     30
                      A                      A                      A
 Frequencies --    794.5993               850.0139               851.1670
 Red. masses --      5.5474                 3.6032                 1.3231
 Frc consts  --      2.0636                 1.5339                 0.5648
 IR Inten    --     12.5421                 1.3165                 2.5586

                     31                     32                     33
                      A                      A                      A
 Frequencies --    874.5802               879.4915               895.9517
 Red. masses --      1.4120                 1.4608                 1.4725
 Frc consts  --      0.6363                 0.6657                 0.6964
 IR Inten    --      4.3102                22.9807                 0.9685

                     34                     35                     36
                      A                      A                      A
 Frequencies --    915.4168               939.2506              1002.8571
 Red. masses --      5.7912                 1.3240                 6.1131
 Frc consts  --      2.8593                 0.6882                 3.6223
 IR Inten    --     60.3339                13.1699                91.1988

                     37                     38                     39
                      A                      A                      A
 Frequencies --   1017.9724              1053.4476              1073.2376
 Red. masses --      3.2093                 4.1338                 1.4091
 Frc consts  --      1.9594                 2.7028                 0.9563
 IR Inten    --     17.5184                17.1470                 7.8437

                     40                     41                     42
                      A                      A                      A
 Frequencies --   1104.7609              1150.4402              1210.1474
 Red. masses --      3.2680                 4.3781                 4.0803
 Frc consts  --      2.3500                 3.4140                 3.5207
 IR Inten    --      3.8088               308.3711               106.7458

                     43                     44                     45
                      A                      A                      A
 Frequencies --   1238.0620              1257.7111              1310.4685
 Red. masses --      2.1695                 1.6704                 2.1827
 Frc consts  --      1.9592                 1.5568                 2.2085
 IR Inten    --     62.5324                20.7599                 9.0546

                     46                     47                     48
                      A                      A                      A
 Frequencies --   1320.1403              1368.8438              1400.8366
 Red. masses --      1.6073                 1.7029                 1.3862
 Frc consts  --      1.6503                 1.8800                 1.6027
 IR Inten    --      2.9782                35.0974                 0.0840

                     49                     50                     51
                      A                      A                      A
 Frequencies --   1510.6527              1525.0404              1549.0267
 Red. masses --      5.1053                 1.1899                 1.6923
 Frc consts  --      6.8644                 1.6305                 2.3924
 IR Inten    --     25.1569                83.4861                 3.2929

                     52                     53                     54
                      A                      A                      A
 Frequencies --   1597.9829              1620.4628              1639.8659
 Red. masses --      2.1978                 8.0837                 7.3836
 Frc consts  --      3.3066                12.5066                11.6987
 IR Inten    --     12.6887               117.0433               497.1332

                     55                     56                     57
                      A                      A                      A
 Frequencies --   1667.0144              1742.5628              1879.1955
 Red. masses --      2.0740                 1.8751                 8.9170
 Frc consts  --      3.3958                 3.3547                18.5529
 IR Inten    --     23.4311                 4.5336               486.2159

                     58                     59                     60
                      A                      A                      A
 Frequencies --   2940.1051              3128.1294              3171.7775
 Red. masses --      1.0857                 1.0915                 1.0892
 Frc consts  --      5.5293                 6.2926                 6.4558
 IR Inten    --    117.4589                55.6289                56.0379

                     61                     62                     63
                      A                      A                      A
 Frequencies --   3178.0838              3217.9466              3246.1086
 Red. masses --      1.0917                 1.0867                 1.1119
 Frc consts  --      6.4965                 6.6299                 6.9030
 IR Inten    --     15.2229                 0.3769                 9.0621

                     64                     65                     66
                      A                      A                      A
 Frequencies --   3592.7025              3672.5731              3785.8593
 Red. masses --      1.0696                 1.0795                 1.0639
 Frc consts  --      8.1345                 8.5787                 8.9840
 IR Inten    --     22.6747               100.8605                90.4092

 - Thermochemistry -
 -------------------
 Temperature   298.150 Kelvin.  Pressure   1.00000 Atm.
 Atom     1 has atomic number  8 and mass  15.99491

 Molecular mass:   203.06948 amu.
 Principal axes and moments of inertia in atomic units:
                           1         2         3
     Eigenvalues --  2166.008453719.829385885.83742
           X            0.99978  -0.02120   0.00000
           Y            0.02120   0.99978   0.00001
           Z           -0.00000  -0.00001   1.00000
 This molecule is an asymmetric top.
 Rotational symmetry number  1.
 Warning -- assumption of classical behavior for rotation
           may cause significant error
 Rotational temperatures (Kelvin)      0.03999     0.02328     0.01472
 Rotational constants (GHZ):           0.83321     0.48517     0.30662
    4 imaginary frequencies ignored.
 Zero-point vibrational energy     463534.2 (Joules/Mol)
                                  110.78732 (Kcal/Mol)
 Warning -- explicit consideration of  16 degrees of freedom as
           vibrations may cause significant error
 Vibrational temperatures:     77.32   184.03   221.48   296.21   324.78
          (Kelvin)            400.63   407.55   447.10   485.96   561.81
                              601.51   616.16   666.86   726.43   738.67
                              867.32   896.07   958.94   969.08  1066.05
                             1093.82  1110.97  1132.83  1143.25  1222.98
                             1224.64  1258.33  1265.39  1289.07  1317.08
                             1351.37  1442.89  1464.64  1515.68  1544.15
                             1589.50  1655.23  1741.13  1781.30  1809.57
                             1885.47  1899.39  1969.46  2015.49  2173.49
                             2194.19  2228.70  2299.14  2331.48  2359.40
                             2398.46  2507.16  2703.74  4230.16  4500.68
                             4563.48  4572.55  4629.91  4670.43  5169.10
                             5284.01  5447.01

 Zero-point correction=                           0.176551 (Hartree/Particle)
 Thermal correction to Energy=                    0.187530
 Thermal correction to Enthalpy=                  0.188474
 Thermal correction to Gibbs Free Energy=         0.139442
 Sum of electronic and zero-point Energies=           -700.734797
 Sum of electronic and thermal Energies=              -700.723818
 Sum of electronic and thermal Enthalpies=            -700.722874
 Sum of electronic and thermal Free Energies=         -700.771906

                     E (Thermal)             CV                S
                      KCal/Mol        Cal/Mol-Kelvin    Cal/Mol-Kelvin
 Total                  117.677             44.483            103.197
 Electronic               0.000              0.000              0.000
 Translational            0.889              2.981             41.830
 Rotational               0.889              2.981             32.228
 Vibrational            115.899             38.522             29.139
 Vibration     1          0.596              1.976              4.675
 Vibration     2          0.611              1.925              2.977
 Vibration     3          0.619              1.898              2.623
 Vibration     4          0.640              1.832              2.080
 Vibration     5          0.650              1.802              1.913
 Vibration     6          0.679              1.713              1.543
 Vibration     7          0.682              1.705              1.514
 Vibration     8          0.700              1.653              1.358
 Vibration     9          0.718              1.600              1.223
 Vibration    10          0.758              1.491              0.998
 Vibration    11          0.781              1.431              0.899
 Vibration    12          0.790              1.409              0.864
 Vibration    13          0.821              1.331              0.756
 Vibration    14          0.860              1.239              0.646
 Vibration    15          0.868              1.220              0.625
 Vibration    16          0.961              1.026              0.445

                           ! Non-Optimized Parameters !
 Normal termination of Gaussian 16 at Mon May 22 20:36:10 2023.
