 Gaussian 16, Revision A.03,
 Gaussian 16:  ES64L-G16RevA.03 25-Dec-2016

 -----------------------------
 # opt freq b3lyp/6-31g(2df,p)
 -----------------------------

 -------------------
 Title Card Required
 -------------------
 Symbolic Z-matrix:
 Charge =  0 Multiplicity = 1

 SCF Done:  E(RB3LYP) =  -1221.58213281     A.U. after   20 cycles
 SCF Done:  E(RB3LYP) =  -1221.60789110     A.U. after   15 cycles
 SCF Done:  E(RB3LYP) =  -1221.62601291     A.U. after   15 cycles
 SCF Done:  E(RB3LYP) =  -1221.63121463     A.U. after   14 cycles
 SCF Done:  E(RB3LYP) =  -1221.63277063     A.U. after   14 cycles
 SCF Done:  E(RB3LYP) =  -1221.63274442     A.U. after   13 cycles
 SCF Done:  E(RB3LYP) =  -1221.63395646     A.U. after   11 cycles
 SCF Done:  E(RB3LYP) =  -1221.63411089     A.U. after   11 cycles
 SCF Done:  E(RB3LYP) =  -1221.63414873     A.U. after   11 cycles
 SCF Done:  E(RB3LYP) =  -1221.63417283     A.U. after   10 cycles
 SCF Done:  E(RB3LYP) =  -1221.63418800     A.U. after   11 cycles
 SCF Done:  E(RB3LYP) =  -1221.63419051     A.U. after   10 cycles
 SCF Done:  E(RB3LYP) =  -1221.63419081     A.U. after    8 cycles
 Optimization completed.
    -- Stationary point found.
 Normal termination of Gaussian 16 at Sat May 27 20:35:18 2023.

 ----------------------------------------------------------------------
 #N Geom=AllCheck Guess=TCheck SCRF=Check GenChk RB3LYP/6-31G(2df,p) Fr
 eq
 ----------------------------------------------------------------------

 Structure from the checkpoint file:  "OC[SH]dCC1CdCqCdCCdSrC1.chk"
 -------------------
 Title Card Required
 -------------------
 Charge =  0 Multiplicity = 1

                         Standard orientation:
 ---------------------------------------------------------------------
 Center     Atomic      Atomic             Coordinates (Angstroms)
 Number     Number       Type             X           Y           Z
 ---------------------------------------------------------------------
      1          8           0       -5.169999   -1.720584   -0.097506
      2          6           0       -4.700499   -0.439902    0.219239
      3         16           0       -2.889985   -0.432884   -0.207713
      4          6           0       -2.433172    1.133836   -0.472773
      5          6           0       -1.097480    1.615800    0.000319
      6          6           0       -0.399459    0.905115    1.143046
      7          6           0        0.753203    0.690227    0.467962
      8          6           0        2.003934    0.104625    0.838216
      9          6           0        3.084218    0.002480    0.020935
     10          6           0        4.314415   -0.591610    0.447878
     11         16           0        5.670526   -0.754430   -0.459790
     12          6           0        0.245234    1.329623   -0.815890
     13          1           0       -6.100674   -1.782261    0.139196
     14          1           0       -4.753855   -0.195093    1.287340
     15          1           0       -5.168340    0.363335   -0.365710
     16          1           0       -3.173290   -1.187216   -1.348245
     17          1           0       -2.973540    1.715812   -1.211131
     18          1           0       -1.183424    2.694858    0.196733
     19          1           0       -0.723602    0.662420    2.150690
     20          1           0        2.079627   -0.283336    1.853927
     21          1           0        3.037780    0.378795   -0.997259
     22          1           0        4.314899   -0.960108    1.478071
     23          1           0        0.098506    0.642064   -1.653049
     24          1           0        0.794892    2.211270   -1.164064
 ---------------------------------------------------------------------

 SCF Done:  E(RB3LYP) =  -1221.63419081     A.U. after    1 cycles

 The electronic state is 1-A.
 Alpha  occ. eigenvalues --  -88.94968 -88.84000 -19.17449 -10.27220 -10.23625
 Alpha  occ. eigenvalues --  -10.21185 -10.20060 -10.19770 -10.19766 -10.19661
 Alpha  occ. eigenvalues --  -10.18201 -10.16772  -8.00521  -7.90527  -5.96821
 Alpha  occ. eigenvalues --   -5.96752  -5.96365  -5.86844  -5.86803  -5.86031
 Alpha  occ. eigenvalues --   -1.05860  -0.87183  -0.83523  -0.81768  -0.75427
 Alpha  occ. eigenvalues --   -0.70840  -0.66975  -0.65337  -0.62546  -0.56933
 Alpha  occ. eigenvalues --   -0.55598  -0.54001  -0.51502  -0.49484  -0.49048
 Alpha  occ. eigenvalues --   -0.46507  -0.45937  -0.44521  -0.43642  -0.39100
 Alpha  occ. eigenvalues --   -0.37760  -0.37644  -0.35988  -0.35486  -0.34606
 Alpha  occ. eigenvalues --   -0.33597  -0.32621  -0.31040  -0.30010  -0.28925
 Alpha  occ. eigenvalues --   -0.22413  -0.20698  -0.18187
 Alpha virt. eigenvalues --   -0.09272   0.00678   0.02098   0.04117   0.04797
 Alpha virt. eigenvalues --    0.08351   0.09178   0.10309   0.10979   0.11109
 Alpha virt. eigenvalues --    0.12275   0.12640   0.13339   0.14231   0.15100

 Mulliken charges:
               1
     1  O   -0.398259
     2  C   -0.090304
     3  S    0.039095
     4  C   -0.245730
     5  C   -0.030617
     6  C   -0.202880
     7  C    0.363977
     8  C   -0.169585
     9  C   -0.077130
    10  C   -0.006256
    11  S   -0.298339
    12  C   -0.365852
    13  H    0.306840
    14  H    0.125800
    15  H    0.124250
    16  H    0.096628
    17  H    0.085548
    18  H    0.092881
    19  H    0.100041
    20  H    0.102488
    21  H    0.116305
    22  H    0.118200
    23  H    0.109868
    24  H    0.103031
 Sum of Mulliken charges =  -0.00000

 Dipole moment (field-independent basis, Debye):
    X=             -8.1976    Y=              0.5992    Z=              1.6305  Tot=              8.3796
 Quadrupole moment (field-independent basis, Debye-Ang):
   XX=            -88.7723   YY=            -88.2583   ZZ=            -82.6279
   XY=              6.4245   XZ=              2.5946   YZ=             -1.8473

  Exact polarizability: 313.076 -24.161 116.022 -29.404   0.563 112.919
 Approx polarizability: 477.804 -56.739 202.550 -92.974  15.418 201.825

 ******    1 imaginary frequencies (negative Signs) ******

                      1                      2                      3
                      A                      A                      A
 Frequencies --   -157.1839                23.2997                43.3187
 Red. masses --      1.1735                 8.4602                 3.1415
 Frc consts  --      0.0171                 0.0027                 0.0035
 IR Inten    --    120.3034                 0.2410                 2.7604

                      4                      5                      6
                      A                      A                      A
 Frequencies --     65.6888                74.9882                80.4478
 Red. masses --      2.6780                 6.6252                 4.5651
 Frc consts  --      0.0068                 0.0219                 0.0174
 IR Inten    --      0.9553                 3.7750                 1.3788

                      7                      8                      9
                      A                      A                      A
 Frequencies --    101.3666               150.1003               177.0108
 Red. masses --      3.4952                 4.9020                 2.3945
 Frc consts  --      0.0212                 0.0651                 0.0442
 IR Inten    --      0.1893                 1.7922                 2.9741

                     10                     11                     12
                      A                      A                      A
 Frequencies --    184.7006               254.3813               283.9666
 Red. masses --      3.8251                 4.9228                 3.5317
 Frc consts  --      0.0769                 0.1877                 0.1678
 IR Inten    --      0.2853                 1.3348                 2.5464

                     13                     14                     15
                      A                      A                      A
 Frequencies --    327.3936               351.8230               376.5795
 Red. masses --      7.1441                 5.8953                 3.0995
 Frc consts  --      0.4512                 0.4299                 0.2590
 IR Inten    --      1.2754                 8.7371                16.4371

                     16                     17                     18
                      A                      A                      A
 Frequencies --    481.3396               509.2472               541.8101
 Red. masses --      2.1623                 3.0061                 1.7038
 Frc consts  --      0.2952                 0.4593                 0.2947
 IR Inten    --      4.0177                23.6854                13.5458

                     19                     20                     21
                      A                      A                      A
 Frequencies --    582.0278               659.7490               693.1799
 Red. masses --      1.8611                 3.2901                 3.9039
 Frc consts  --      0.3715                 0.8437                 1.1052
 IR Inten    --     36.9232                 9.8759                15.7608

                     22                     23                     24
                      A                      A                      A
 Frequencies --    754.3324               786.4676               848.1354
 Red. masses --      1.9717                 1.4730                 1.4071
 Frc consts  --      0.6610                 0.5368                 0.5963
 IR Inten    --     13.6912                 2.4854                16.0754

                     25                     26                     27
                      A                      A                      A
 Frequencies --    871.2041               894.2662               921.3170
 Red. masses --      2.1991                 1.4217                 1.8865
 Frc consts  --      0.9834                 0.6699                 0.9434
 IR Inten    --      1.7954                 0.5923                 6.1083

                     28                     29                     30
                      A                      A                      A
 Frequencies --    934.6414               955.0009               991.6544
 Red. masses --      1.9340                 3.3749                 2.1856
 Frc consts  --      0.9954                 1.8135                 1.2663
 IR Inten    --      1.3623                 4.7094                93.1757

                     31                     32                     33
                      A                      A                      A
 Frequencies --   1001.9050              1016.7571              1024.3282
 Red. masses --      2.2105                 3.5314                 1.1873
 Frc consts  --      1.3074                 2.1509                 0.7340
 IR Inten    --      3.3690                29.1084                42.1198

                     34                     35                     36
                      A                      A                      A
 Frequencies --   1063.5534              1094.5655              1115.5433
 Red. masses --      2.3436                 1.3365                 1.4966
 Frc consts  --      1.5619                 0.9434                 1.0973
 IR Inten    --    205.8193                 7.1867                32.2119

                     37                     38                     39
                      A                      A                      A
 Frequencies --   1136.8435              1169.9441              1186.0956
 Red. masses --      1.5220                 1.3366                 1.4528
 Frc consts  --      1.1589                 1.0779                 1.2042
 IR Inten    --     62.0774                 6.7813                50.2738

                     40                     41                     42
                      A                      A                      A
 Frequencies --   1193.2791              1209.1419              1211.6680
 Red. masses --      1.1298                 1.1262                 1.8857
 Frc consts  --      0.9479                 0.9702                 1.6312
 IR Inten    --     19.5657                69.3784               174.8201

                     43                     44                     45
                      A                      A                      A
 Frequencies --   1233.7163              1246.1650              1294.5033
 Red. masses --      1.3026                 1.4472                 2.2991
 Frc consts  --      1.1681                 1.3242                 2.2699
 IR Inten    --      1.5963                 6.6417                30.3725

                     46                     47                     48
                      A                      A                      A
 Frequencies --   1310.2282              1331.2682              1338.5581
 Red. masses --      1.6413                 1.7548                 2.3550
 Frc consts  --      1.6601                 1.8323                 2.4861
 IR Inten    --      3.2963                39.6088                12.3740

                     49                     50                     51
                      A                      A                      A
 Frequencies --   1373.3206              1392.8674              1469.9282
 Red. masses --      1.3332                 1.8251                 1.1135
 Frc consts  --      1.4815                 2.0862                 1.4176
 IR Inten    --     17.0065                92.6020                 6.2652

                     52                     53                     54
                      A                      A                      A
 Frequencies --   1504.1247              1610.8184              1656.1444
 Red. masses --      1.0963                 5.2093                 6.5102
 Frc consts  --      1.4613                 7.9639                10.5206
 IR Inten    --      1.2832               137.8473               288.3340

                     55                     56                     57
                      A                      A                      A
 Frequencies --   2200.1014              2987.6727              3001.3270
 Red. masses --      1.0378                 1.0818                 1.0526
 Frc consts  --      2.9598                 5.6896                 5.5864
 IR Inten    --    247.3172                28.5815                26.7219

                     58                     59                     60
                      A                      A                      A
 Frequencies --   3039.2611              3062.3485              3073.1040
 Red. masses --      1.0594                 1.1116                 1.0860
 Frc consts  --      5.7654                 6.1420                 6.0429
 IR Inten    --     29.2979                23.8767                16.5473

                     61                     62                     63
                      A                      A                      A
 Frequencies --   3100.3400              3133.9910              3172.0391
 Red. masses --      1.1049                 1.0878                 1.0872
 Frc consts  --      6.2573                 6.2951                 6.4453
 IR Inten    --     21.0507                11.6273                23.8225

                     64                     65                     66
                      A                      A                      A
 Frequencies --   3175.0951              3175.8636              3825.4807
 Red. masses --      1.0958                 1.0891                 1.0666
 Frc consts  --      6.5089                 6.4719                 9.1961
 IR Inten    --     13.4612                 5.2487                68.7612

 - Thermochemistry -
 -------------------
 Temperature   298.150 Kelvin.  Pressure   1.00000 Atm.
 Atom     1 has atomic number  8 and mass  15.99491

 Molecular mass:   200.03296 amu.
 Principal axes and moments of inertia in atomic units:
                           1         2         3
     Eigenvalues --   903.239699562.753579972.69289
           X            1.00000   0.00128   0.00270
           Y           -0.00116   0.99903  -0.04398
           Z           -0.00276   0.04398   0.99903
 This molecule is an asymmetric top.
 Rotational symmetry number  1.
 Warning -- assumption of classical behavior for rotation
           may cause significant error
 Rotational temperatures (Kelvin)      0.09589     0.00906     0.00869
 Rotational constants (GHZ):           1.99808     0.18873     0.18097
    1 imaginary frequencies ignored.
 Zero-point vibrational energy     484794.6 (Joules/Mol)
                                  115.86869 (Kcal/Mol)
 Warning -- explicit consideration of  18 degrees of freedom as
           vibrations may cause significant error
 Vibrational temperatures:     33.52    62.33    94.51   107.89   115.75
          (Kelvin)            145.84   215.96   254.68   265.74   366.00
                              408.56   471.05   506.19   541.81   692.54
                              732.69   779.54   837.41   949.23   997.33
                             1085.32  1131.55  1220.28  1253.47  1286.65
                             1325.57  1344.74  1374.03  1426.77  1441.52
                             1462.89  1473.78  1530.22  1574.84  1605.02
                             1635.66  1683.29  1706.53  1716.86  1739.69
                             1743.32  1775.04  1792.95  1862.50  1885.13
                             1915.40  1925.89  1975.90  2004.03  2114.90
                             2164.10  2317.61  2382.82  3165.46  4298.59
                             4318.24  4372.82  4406.04  4421.51  4460.70
                             4509.11  4563.86  4568.25  4569.36  5504.01

 Zero-point correction=                           0.184649 (Hartree/Particle)
 Thermal correction to Energy=                    0.198132
 Thermal correction to Enthalpy=                  0.199076
 Thermal correction to Gibbs Free Energy=         0.141550
 Sum of electronic and zero-point Energies=          -1221.449542
 Sum of electronic and thermal Energies=             -1221.436059
 Sum of electronic and thermal Enthalpies=           -1221.435114
 Sum of electronic and thermal Free Energies=        -1221.492641

                     E (Thermal)             CV                S
                      KCal/Mol        Cal/Mol-Kelvin    Cal/Mol-Kelvin
 Total                  124.330             47.490            121.074
 Electronic               0.000              0.000              0.000
 Translational            0.889              2.981             41.785
 Rotational               0.889              2.981             32.821
 Vibrational            122.552             41.528             46.468
 Vibration     1          0.593              1.985              6.331
 Vibration     2          0.595              1.980              5.101
 Vibration     3          0.597              1.971              4.279
 Vibration     4          0.599              1.966              4.018
 Vibration     5          0.600              1.962              3.880
 Vibration     6          0.604              1.948              3.428
 Vibration     7          0.618              1.903              2.671
 Vibration     8          0.628              1.871              2.360
 Vibration     9          0.631              1.861              2.280
 Vibration    10          0.665              1.755              1.700
 Vibration    11          0.682              1.703              1.510
 Vibration    12          0.711              1.621              1.273
 Vibration    13          0.728              1.572              1.158
 Vibration    14          0.747              1.520              1.053
 Vibration    15          0.838              1.291              0.706
 Vibration    16          0.864              1.230              0.635
 Vibration    17          0.897              1.158              0.561
 Vibration    18          0.939              1.070              0.482

                           ! Non-Optimized Parameters !
 Normal termination of Gaussian 16 at Sat May 27 21:23:54 2023.
