 Gaussian 16, Revision A.03,
 Gaussian 16:  ES64L-G16RevA.03 25-Dec-2016

 -----------------------------
 # opt freq b3lyp/6-31g(2df,p)
 -----------------------------

 -------------------
 Title Card Required
 -------------------
 Symbolic Z-matrix:
 Charge =  0 Multiplicity = 1

 SCF Done:  E(RB3LYP) =  -1490.67339733     A.U. after   13 cycles
 SCF Done:  E(RB3LYP) =  -1490.68606843     A.U. after   12 cycles
 SCF Done:  E(RB3LYP) =  -1490.68798752     A.U. after   12 cycles
 SCF Done:  E(RB3LYP) =  -1490.68862545     A.U. after   11 cycles
 SCF Done:  E(RB3LYP) =  -1490.68942311     A.U. after   12 cycles
 SCF Done:  E(RB3LYP) =  -1490.68989436     A.U. after   11 cycles
 SCF Done:  E(RB3LYP) =  -1490.69139718     A.U. after   14 cycles
 SCF Done:  E(RB3LYP) =  -1490.69293825     A.U. after   11 cycles
 SCF Done:  E(RB3LYP) =  -1490.69476735     A.U. after   12 cycles
 SCF Done:  E(RB3LYP) =  -1490.69475875     A.U. after   11 cycles
 SCF Done:  E(RB3LYP) =  -1490.69506929     A.U. after   10 cycles
 SCF Done:  E(RB3LYP) =  -1490.69511744     A.U. after   10 cycles
 SCF Done:  E(RB3LYP) =  -1490.69514860     A.U. after   10 cycles
 SCF Done:  E(RB3LYP) =  -1490.69517940     A.U. after   11 cycles
 SCF Done:  E(RB3LYP) =  -1490.69521859     A.U. after   11 cycles
 SCF Done:  E(RB3LYP) =  -1490.69522875     A.U. after    9 cycles
 SCF Done:  E(RB3LYP) =  -1490.69522961     A.U. after    8 cycles
 SCF Done:  E(RB3LYP) =  -1490.69522981     A.U. after    8 cycles
 SCF Done:  E(RB3LYP) =  -1490.69522982     A.U. after    6 cycles
 Optimization completed.
    -- Stationary point found.
 Normal termination of Gaussian 16 at Mon May 29 01:52:14 2023.

 ----------------------------------------------------------------------
 #N Geom=AllCheck Guess=TCheck SCRF=Check GenChk RB3LYP/6-31G(2df,p) Fr
 eq
 ----------------------------------------------------------------------

 Structure from the checkpoint file:  "OCCCNCCCCCPqOOrOCCS.chk"
 -------------------
 Title Card Required
 -------------------
 Charge =  0 Multiplicity = 1

                         Standard orientation:
 ---------------------------------------------------------------------
 Center     Atomic      Atomic             Coordinates (Angstroms)
 Number     Number       Type             X           Y           Z
 ---------------------------------------------------------------------
      1          8           0       -9.728262   -0.080767   -0.418043
      2          6           0       -8.624249   -0.733200    0.191724
      3          6           0       -7.351329   -0.065984   -0.310933
      4          6           0       -6.085066   -0.660293    0.303321
      5          7           0       -4.891120   -0.023656   -0.239063
      6          6           0       -3.649097   -0.512255    0.347153
      7          6           0       -2.437055    0.219370   -0.229336
      8          6           0       -1.104093   -0.293457    0.324577
      9          6           0        0.109737    0.453633   -0.241641
     10          6           0        1.440170   -0.069709    0.316685
     11         15           0        2.923824    0.751179   -0.418478
     12          8           0        2.616470    2.171924    0.413169
     13          8           0        3.500331    3.209081   -0.110745
     14          8           0        4.044779   -0.003480    0.528080
     15          6           0        5.406242   -0.076949    0.101078
     16          6           0        5.857024   -1.532769    0.145224
     17         16           0        7.637766   -1.740068   -0.226784
     18          1           0      -10.534689   -0.503850   -0.109690
     19          1           0       -8.606697   -1.806333   -0.060801
     20          1           0       -8.676930   -0.659980    1.290708
     21          1           0       -7.411830    1.005838   -0.080734
     22          1           0       -7.303815   -0.152845   -1.401396
     23          1           0       -6.028052   -1.732375    0.068425
     24          1           0       -6.140055   -0.592353    1.408376
     25          1           0       -4.955586    0.980146   -0.092546
     26          1           0       -3.570616   -1.584687    0.120566
     27          1           0       -3.636764   -0.432182    1.452639
     28          1           0       -2.528294    1.294004   -0.014730
     29          1           0       -2.455145    0.121897   -1.321530
     30          1           0       -1.005733   -1.365696    0.104970
     31          1           0       -1.102668   -0.207009    1.419845
     32          1           0        0.020961    1.522729   -0.018172
     33          1           0        0.108527    0.368349   -1.336535
     34          1           0        1.559136   -1.137963    0.097842
     35          1           0        1.486761    0.041354    1.406202
     36          1           0        4.008315    3.407081    0.689182
     37          1           0        6.023289    0.527231    0.775208
     38          1           0        5.515071    0.327511   -0.913845
     39          1           0        5.258996   -2.146397   -0.532315
     40          1           0        5.728118   -1.931151    1.155006
     41          1           0        7.583666   -1.348722   -1.514327
 ---------------------------------------------------------------------

 SCF Done:  E(RB3LYP) =  -1490.69522982     A.U. after    1 cycles

 The electronic state is 1-A.
 Alpha  occ. eigenvalues --  -88.87653 -77.13392 -19.19975 -19.19647 -19.15719
 Alpha  occ. eigenvalues --  -19.13029 -14.30699 -10.24752 -10.22458 -10.22455
 Alpha  occ. eigenvalues --  -10.20165 -10.19979 -10.18672 -10.18510 -10.18134
 Alpha  occ. eigenvalues --  -10.17727 -10.17449  -7.94262  -6.59413  -5.90711
 Alpha  occ. eigenvalues --   -5.90376  -5.89771  -4.75845  -4.75663  -4.75137
 Alpha  occ. eigenvalues --   -1.11258  -1.03510  -1.01123  -0.90166  -0.89913
 Alpha  occ. eigenvalues --   -0.80560  -0.80200  -0.77165  -0.74292  -0.70811
 Alpha  occ. eigenvalues --   -0.67830  -0.64073  -0.61902  -0.60049  -0.58915
 Alpha  occ. eigenvalues --   -0.57617  -0.56938  -0.52400  -0.50702  -0.49716
 Alpha  occ. eigenvalues --   -0.48919  -0.48753  -0.47624  -0.45872  -0.45536
 Alpha  occ. eigenvalues --   -0.44732  -0.43638  -0.43320  -0.42103  -0.41448
 Alpha  occ. eigenvalues --   -0.40897  -0.39664  -0.39197  -0.38376  -0.37764
 Alpha  occ. eigenvalues --   -0.36681  -0.35323  -0.34975  -0.34290  -0.33660
 Alpha  occ. eigenvalues --   -0.33397  -0.33354  -0.32897  -0.32371  -0.32174
 Alpha  occ. eigenvalues --   -0.31323  -0.30572  -0.27331  -0.26420  -0.24562
 Alpha  occ. eigenvalues --   -0.24096  -0.21771
 Alpha virt. eigenvalues --    0.00897   0.01809   0.02918   0.04213   0.06523
 Alpha virt. eigenvalues --    0.07927   0.08470   0.08737   0.09887   0.10452
 Alpha virt. eigenvalues --    0.10655   0.11865   0.12102   0.12455   0.13313

 Mulliken charges:
               1
     1  O   -0.420693
     2  C   -0.070891
     3  C   -0.182181
     4  C   -0.122430
     5  N   -0.298023
     6  C   -0.121324
     7  C   -0.199121
     8  C   -0.187158
     9  C   -0.196579
    10  C   -0.222445
    11  P    0.188006
    12  O   -0.185963
    13  O   -0.298236
    14  O   -0.233748
    15  C   -0.058488
    16  C   -0.198752
    17  S   -0.261764
    18  H    0.284669
    19  H    0.084564
    20  H    0.082992
    21  H    0.099810
    22  H    0.117034
    23  H    0.098879
    24  H    0.071215
    25  H    0.208691
    26  H    0.097992
    27  H    0.070682
    28  H    0.090412
    29  H    0.107663
    30  H    0.093488
    31  H    0.095647
    32  H    0.120521
    33  H    0.107598
    34  H    0.114738
    35  H    0.124633
    36  H    0.315955
    37  H    0.120205
    38  H    0.116600
    39  H    0.140180
    40  H    0.146759
    41  H    0.158862
 Sum of Mulliken charges =  -0.00000

 Dipole moment (field-independent basis, Debye):
    X=             -0.6659    Y=             -1.0415    Z=              1.9788  Tot=              2.3332
 Quadrupole moment (field-independent basis, Debye-Ang):
   XX=           -118.9147   YY=           -119.4344   ZZ=           -119.7326
   XY=             15.2953   XZ=            -11.7507   YZ=              4.8259

  Exact polarizability: 250.424  -0.671 160.728  -2.808  -2.060 138.786
 Approx polarizability: 269.260   3.636 244.776  -4.913  -4.680 227.562

                      1                      2                      3
                      A                      A                      A
 Frequencies --     10.9400                19.8226                23.1840
 Red. masses --      7.0815                 4.7668                 3.7928
 Frc consts  --      0.0005                 0.0011                 0.0012
 IR Inten    --      0.1899                 0.7289                 1.4078

                      4                      5                      6
                      A                      A                      A
 Frequencies --     28.6533                40.4228                46.9076
 Red. masses --      2.4342                 2.6129                 4.8941
 Frc consts  --      0.0012                 0.0025                 0.0063
 IR Inten    --      1.6181                 0.3309                 0.2832

                      7                      8                      9
                      A                      A                      A
 Frequencies --     60.5055                72.2094                75.2338
 Red. masses --      3.5300                 2.7303                 2.4016
 Frc consts  --      0.0076                 0.0084                 0.0080
 IR Inten    --      0.3440                 3.3109                 3.5449

                     10                     11                     12
                      A                      A                      A
 Frequencies --     91.9837               101.2523               117.1970
 Red. masses --      3.6825                 5.2128                 1.8676
 Frc consts  --      0.0184                 0.0315                 0.0151
 IR Inten    --      0.8767                 1.3459                 2.0543

                     13                     14                     15
                      A                      A                      A
 Frequencies --    130.2193               141.8580               146.0963
 Red. masses --      3.0508                 5.2449                 4.4752
 Frc consts  --      0.0305                 0.0622                 0.0563
 IR Inten    --      0.2833                 0.2563                 1.3784

                     16                     17                     18
                      A                      A                      A
 Frequencies --    158.1936               170.2407               208.6571
 Red. masses --      1.9879                 2.4215                 2.7973
 Frc consts  --      0.0293                 0.0413                 0.0718
 IR Inten    --      2.0268                 1.2250                 8.0161

                     19                     20                     21
                      A                      A                      A
 Frequencies --    212.0741               224.6922               234.5877
 Red. masses --      2.4241                 1.4955                 3.1079
 Frc consts  --      0.0642                 0.0445                 0.1008
 IR Inten    --      0.9118                17.6924                15.8697

                     22                     23                     24
                      A                      A                      A
 Frequencies --    236.1617               264.4545               270.4206
 Red. masses --      1.2516                 1.0829                 5.8871
 Frc consts  --      0.0411                 0.0446                 0.2536
 IR Inten    --     86.4153               105.3395                 0.4435

                     25                     26                     27
                      A                      A                      A
 Frequencies --    315.6574               327.6402               342.7619
 Red. masses --      6.3060                 4.5529                 4.2546
 Frc consts  --      0.3702                 0.2880                 0.2945
 IR Inten    --      4.4048                 0.1220                 1.1168

                     28                     29                     30
                      A                      A                      A
 Frequencies --    409.0341               427.1053               454.8673
 Red. masses --      7.2777                 4.2904                 5.1881
 Frc consts  --      0.7174                 0.4611                 0.6324
 IR Inten    --      6.5407                15.5744                11.7257

                     31                     32                     33
                      A                      A                      A
 Frequencies --    504.3177               524.7036               702.1784
 Red. masses --      3.5679                 3.2593                 1.8232
 Frc consts  --      0.5347                 0.5287                 0.5296
 IR Inten    --      3.4247                 9.5933                11.0418

                     34                     35                     36
                      A                      A                      A
 Frequencies --    710.7231               736.2780               739.2881
 Red. masses --      2.6172                 1.6774                 1.2759
 Frc consts  --      0.7789                 0.5358                 0.4109
 IR Inten    --     10.5435                39.8846                31.1550

                     37                     38                     39
                      A                      A                      A
 Frequencies --    749.0919               766.2189               774.4115
 Red. masses --      3.2554                 1.5529                 1.0974
 Frc consts  --      1.0763                 0.5372                 0.3877
 IR Inten    --     24.6739                33.2067                 1.6089

                     40                     41                     42
                      A                      A                      A
 Frequencies --    782.8025               800.9840               830.3101
 Red. masses --      1.2512                 3.8259                 1.4557
 Frc consts  --      0.4517                 1.4462                 0.5913
 IR Inten    --     67.6841               120.5034                 6.8921

                     43                     44                     45
                      A                      A                      A
 Frequencies --    874.7116               890.1616               922.6222
 Red. masses --      1.1612                 1.1947                14.6387
 Frc consts  --      0.5234                 0.5577                 7.3418
 IR Inten    --      6.4124                 2.5289                 2.4297

                     46                     47                     48
                      A                      A                      A
 Frequencies --    942.3495               997.2772              1003.1156
 Red. masses --      1.3489                 4.4164                 3.5682
 Frc consts  --      0.7058                 2.5879                 2.1154
 IR Inten    --     12.6505                53.0507                 3.3124

                     49                     50                     51
                      A                      A                      A
 Frequencies --   1032.5167              1038.9817              1045.8460
 Red. masses --      2.8929                 4.3423                 2.9009
 Frc consts  --      1.8171                 2.7618                 1.8695
 IR Inten    --      4.9072                27.8090                59.6302

                     52                     53                     54
                      A                      A                      A
 Frequencies --   1055.2787              1058.6376              1066.6397
 Red. masses --      1.4596                 2.4713                 2.8937
 Frc consts  --      0.9577                 1.6318                 1.9397
 IR Inten    --      3.2547                59.2654               268.9048

                     55                     56                     57
                      A                      A                      A
 Frequencies --   1069.7597              1079.6782              1102.0658
 Red. masses --      2.4448                 4.5043                 1.5235
 Frc consts  --      1.6484                 3.0936                 1.0902
 IR Inten    --     58.5889                10.8594                49.3179

                     58                     59                     60
                      A                      A                      A
 Frequencies --   1119.6774              1129.8279              1158.3266
 Red. masses --      2.6628                 1.3566                 4.0235
 Frc consts  --      1.9669                 1.0203                 3.1806
 IR Inten    --     11.5779                 8.1035                48.6991

                     61                     62                     63
                      A                      A                      A
 Frequencies --   1197.3983              1206.9802              1226.8240
 Red. masses --      1.4914                 1.3203                 1.2634
 Frc consts  --      1.2598                 1.1333                 1.1204
 IR Inten    --      6.5843                 1.3542                 2.0164

                     64                     65                     66
                      A                      A                      A
 Frequencies --   1231.7554              1241.0342              1260.5506
 Red. masses --      1.3855                 1.3269                 1.2462
 Frc consts  --      1.2385                 1.2041                 1.1667
 IR Inten    --     10.7085                26.0140                 6.1547

                     67                     68                     69
                      A                      A                      A
 Frequencies --   1261.9681              1280.2409              1300.4084
 Red. masses --      1.3659                 1.3349                 1.2095
 Frc consts  --      1.2816                 1.2891                 1.2050
 IR Inten    --      6.6946                 5.4763                 8.3939

                     70                     71                     72
                      A                      A                      A
 Frequencies --   1307.4113              1315.2158              1316.4781
 Red. masses --      1.1228                 1.0898                 1.1623
 Frc consts  --      1.1307                 1.1107                 1.1868
 IR Inten    --      2.9367                 1.7416                 6.8006

                     73                     74                     75
                      A                      A                      A
 Frequencies --   1320.0071              1323.9996              1334.9838
 Red. masses --      1.2483                 1.0776                 1.0896
 Frc consts  --      1.2815                 1.1130                 1.1441
 IR Inten    --      5.1812                 0.4015                 0.6156

                     76                     77                     78
                      A                      A                      A
 Frequencies --   1352.2843              1383.1455              1386.8772
 Red. masses --      1.3624                 1.1278                 1.4083
 Frc consts  --      1.4678                 1.2713                 1.5960
 IR Inten    --      3.7150                60.4643                16.8734

                     79                     80                     81
                      A                      A                      A
 Frequencies --   1399.5737              1405.3482              1431.4673
 Red. masses --      1.5862                 1.2624                 1.5245
 Frc consts  --      1.8306                 1.4689                 1.8405
 IR Inten    --      7.9480                16.5821                 0.7110

                     82                     83                     84
                      A                      A                      A
 Frequencies --   1450.9762              1464.4006              1473.1865
 Red. masses --      1.0873                 1.4718                 1.0902
 Frc consts  --      1.3487                 1.8596                 1.3941
 IR Inten    --      1.9097                17.1404                 3.2619

                     85                     86                     87
                      A                      A                      A
 Frequencies --   1485.0902              1490.9588              1495.6837
 Red. masses --      1.0710                 1.0959                 1.2229
 Frc consts  --      1.3917                 1.4353                 1.6118
 IR Inten    --      0.0450                 0.0679                32.5111

                     88                     89                     90
                      A                      A                      A
 Frequencies --   1496.1759              1504.6549              1506.6902
 Red. masses --      1.0883                 1.0847                 1.0912
 Frc consts  --      1.4353                 1.4469                 1.4595
 IR Inten    --      1.3522                 2.0358                 4.8395

                     91                     92                     93
                      A                      A                      A
 Frequencies --   1514.9060              1525.3278              1532.9015
 Red. masses --      1.0904                 1.0898                 1.0896
 Frc consts  --      1.4744                 1.4940                 1.5085
 IR Inten    --      7.8254                 0.6901                 0.5782

                     94                     95                     96
                      A                      A                      A
 Frequencies --   2671.4631              2895.8325              2902.0547
 Red. masses --      1.0385                 1.0731                 1.0731
 Frc consts  --      4.3668                 5.3019                 5.3247
 IR Inten    --      4.3555                20.9697               124.2949

                     97                     98                     99
                      A                      A                      A
 Frequencies --   2956.7794              2980.8442              3001.9813
 Red. masses --      1.0545                 1.1054                 1.0629
 Frc consts  --      5.4314                 5.7871                 5.6435
 IR Inten    --     62.3619                53.3530                 0.5359

                    100                    101                    102
                      A                      A                      A
 Frequencies --   3006.3325              3015.3333              3015.7646
 Red. masses --      1.0644                 1.0812                 1.0593
 Frc consts  --      5.6681                 5.7921                 5.6765
 IR Inten    --     15.9901                 3.0485                23.4235

                    103                    104                    105
                      A                      A                      A
 Frequencies --   3019.1120              3023.5344              3030.5512
 Red. masses --      1.0711                 1.0732                 1.0670
 Frc consts  --      5.7522                 5.7807                 5.7737
 IR Inten    --      9.7638                43.5955                18.5597

                    106                    107                    108
                      A                      A                      A
 Frequencies --   3031.6489              3034.5526              3061.0214
 Red. masses --      1.0661                 1.0873                 1.0963
 Frc consts  --      5.7732                 5.8991                 6.0520
 IR Inten    --     69.5733                 9.6381                16.4749

                    109                    110                    111
                      A                      A                      A
 Frequencies --   3068.3660              3070.2205              3071.3068
 Red. masses --      1.0902                 1.1018                 1.0707
 Frc consts  --      6.0472                 6.1191                 5.9507
 IR Inten    --      6.7011                32.5409                20.9787

                    112                    113                    114
                      A                      A                      A
 Frequencies --   3085.9503              3087.3144              3125.3749
 Red. masses --      1.0998                 1.1036                 1.1079
 Frc consts  --      6.1708                 6.1973                 6.3759
 IR Inten    --     34.0018                45.0637                 9.8284

                    115                    116                    117
                      A                      A                      A
 Frequencies --   3494.8682              3759.0852              3830.5265
 Red. masses --      1.0732                 1.0684                 1.0664
 Frc consts  --      7.7229                 8.8952                 9.2187
 IR Inten    --      0.5079                42.8283                19.2237

 - Thermochemistry -
 -------------------
 Temperature   298.150 Kelvin.  Pressure   1.00000 Atm.
 Atom     1 has atomic number  8 and mass  15.99491

 Molecular mass:   285.11637 amu.
 Principal axes and moments of inertia in atomic units:
                           1         2         3
     Eigenvalues --  1753.77847********************
           X            1.00000   0.00223  -0.00166
           Y           -0.00223   1.00000   0.00007
           Z            0.00166  -0.00007   1.00000
 This molecule is an asymmetric top.
 Rotational symmetry number  1.
 Warning -- assumption of classical behavior for rotation
           may cause significant error
 Rotational temperatures (Kelvin)      0.04939     0.00291     0.00278
 Rotational constants (GHZ):           1.02906     0.06070     0.05795
 Zero-point vibrational energy     910576.7 (Joules/Mol)
                                  217.63306 (Kcal/Mol)
 Warning -- explicit consideration of  32 degrees of freedom as
           vibrations may cause significant error
 Vibrational temperatures:     15.74    28.52    33.36    41.23    58.16
          (Kelvin)             67.49    87.05   103.89   108.24   132.34
                              145.68   168.62   187.36   204.10   210.20
                              227.61   244.94   300.21   305.13   323.28
                              337.52   339.78   380.49   389.07   454.16
                              471.40   493.16   588.51   614.51   654.45
                              725.60   754.93  1010.28  1022.57  1059.34
                             1063.67  1077.78  1102.42  1114.21  1126.28
                             1152.44  1194.63  1258.51  1280.74  1327.45
                             1355.83  1434.86  1443.26  1485.56  1494.86
                             1504.74  1518.31  1523.14  1534.66  1539.15
                             1553.42  1585.63  1610.97  1625.57  1666.57
                             1722.79  1736.58  1765.13  1772.22  1785.57
                             1813.65  1815.69  1841.98  1871.00  1881.07
                             1892.30  1894.12  1899.20  1904.94  1920.74
                             1945.64  1990.04  1995.41  2013.67  2021.98
                             2059.56  2087.63  2106.95  2119.59  2136.71
                             2145.16  2151.96  2152.66  2164.86  2167.79
                             2179.61  2194.61  2205.50  3843.64  4166.46
                             4175.41  4254.15  4288.77  4319.18  4325.44
                             4338.39  4339.01  4343.83  4350.19  4360.29
                             4361.87  4366.04  4404.13  4414.69  4417.36
                             4418.93  4439.99  4441.96  4496.72  5028.34
                             5408.49  5511.27

 Zero-point correction=                           0.346820 (Hartree/Particle)
 Thermal correction to Energy=                    0.370542
 Thermal correction to Enthalpy=                  0.371486
 Thermal correction to Gibbs Free Energy=         0.287408
 Sum of electronic and zero-point Energies=          -1490.348409
 Sum of electronic and thermal Energies=             -1490.324688
 Sum of electronic and thermal Enthalpies=           -1490.323744
 Sum of electronic and thermal Free Energies=        -1490.407821

                     E (Thermal)             CV                S
                      KCal/Mol        Cal/Mol-Kelvin    Cal/Mol-Kelvin
 Total                  232.518             80.655            176.955
 Electronic               0.000              0.000              0.000
 Translational            0.889              2.981             42.841
 Rotational               0.889              2.981             35.739
 Vibrational            230.741             74.693             98.376
 Vibration     1          0.593              1.987              7.833
 Vibration     2          0.593              1.986              6.652
 Vibration     3          0.593              1.985              6.341
 Vibration     4          0.593              1.984              5.921
 Vibration     5          0.594              1.981              5.238
 Vibration     6          0.595              1.979              4.944
 Vibration     7          0.597              1.973              4.441
 Vibration     8          0.598              1.967              4.092
 Vibration     9          0.599              1.966              4.012
 Vibration    10          0.602              1.955              3.617
 Vibration    11          0.604              1.948              3.430
 Vibration    12          0.608              1.935              3.146
 Vibration    13          0.612              1.923              2.943
 Vibration    14          0.615              1.911              2.779
 Vibration    15          0.617              1.907              2.722
 Vibration    16          0.621              1.893              2.571
 Vibration    17          0.625              1.879              2.433
 Vibration    18          0.642              1.827              2.055
 Vibration    19          0.643              1.822              2.026
 Vibration    20          0.649              1.803              1.921
 Vibration    21          0.654              1.788              1.844
 Vibration    22          0.655              1.785              1.832
 Vibration    23          0.671              1.738              1.632
 Vibration    24          0.674              1.728              1.594
 Vibration    25          0.703              1.644              1.333
 Vibration    26          0.711              1.620              1.272
 Vibration    27          0.722              1.590              1.199
 Vibration    28          0.773              1.451              0.930
 Vibration    29          0.789              1.411              0.868
 Vibration    30          0.813              1.350              0.781
 Vibration    31          0.860              1.240              0.647
 Vibration    32          0.880              1.195              0.599

                           ! Non-Optimized Parameters !
 Normal termination of Gaussian 16 at Mon May 29 04:31:31 2023.
