 Gaussian 16, Revision A.03,
 Gaussian 16:  ES64L-G16RevA.03 25-Dec-2016

 -----------------------------
 # opt freq b3lyp/6-31g(2df,p)
 -----------------------------

 -------------------
 Title Card Required
 -------------------
 Symbolic Z-matrix:
 Charge =  0 Multiplicity = 1

 SCF Done:  E(RB3LYP) =  -673.886178114     A.U. after   13 cycles
 SCF Done:  E(RB3LYP) =  -673.895957559     A.U. after   11 cycles
 SCF Done:  E(RB3LYP) =  -673.897588766     A.U. after   11 cycles
 SCF Done:  E(RB3LYP) =  -673.898487497     A.U. after   11 cycles
 SCF Done:  E(RB3LYP) =  -673.899557065     A.U. after   14 cycles
 SCF Done:  E(RB3LYP) =  -673.900782239     A.U. after   11 cycles
 SCF Done:  E(RB3LYP) =  -673.902230702     A.U. after   12 cycles
 SCF Done:  E(RB3LYP) =  -673.902376597     A.U. after   11 cycles
 SCF Done:  E(RB3LYP) =  -673.902451645     A.U. after   10 cycles
 SCF Done:  E(RB3LYP) =  -673.902492673     A.U. after   10 cycles
 SCF Done:  E(RB3LYP) =  -673.902509010     A.U. after    9 cycles
 SCF Done:  E(RB3LYP) =  -673.902522448     A.U. after    9 cycles
 SCF Done:  E(RB3LYP) =  -673.902527843     A.U. after    9 cycles
 SCF Done:  E(RB3LYP) =  -673.902531007     A.U. after    8 cycles
 SCF Done:  E(RB3LYP) =  -673.902531637     A.U. after    8 cycles
 SCF Done:  E(RB3LYP) =  -673.902532046     A.U. after    7 cycles
 SCF Done:  E(RB3LYP) =  -673.902532181     A.U. after    7 cycles
 SCF Done:  E(RB3LYP) =  -673.902532230     A.U. after    6 cycles
 Optimization completed.
    -- Stationary point found.
 Normal termination of Gaussian 16 at Sun May 28 10:52:22 2023.

 ----------------------------------------------------------------------
 #N Geom=AllCheck Guess=TCheck SCRF=Check GenChk RB3LYP/6-31G(2df,p) Fr
 eq
 ----------------------------------------------------------------------

 Structure from the checkpoint file:  "OCCCOC1CCC1Cn1cccc1.chk"
 -------------------
 Title Card Required
 -------------------
 Charge =  0 Multiplicity = 1

                         Standard orientation:
 ---------------------------------------------------------------------
 Center     Atomic      Atomic             Coordinates (Angstroms)
 Number     Number       Type             X           Y           Z
 ---------------------------------------------------------------------
      1          8           0        4.878112   -1.438013   -0.092498
      2          6           0        3.764013   -0.820689   -0.718479
      3          6           0        2.894090   -0.218706    0.377167
      4          6           0        1.666108    0.492036   -0.176053
      5          8           0        0.920683    0.982273    0.927545
      6          6           0       -0.172438    1.817081    0.652189
      7          6           0       -0.020882    3.188549   -0.058271
      8          6           0       -1.463784    2.979644   -0.592073
      9          6           0       -1.293601    1.449746   -0.368662
     10          6           0       -2.505854    0.636124    0.073936
     11          7           0       -2.289315   -0.801884    0.063811
     12          6           0       -1.316498   -1.480084    0.761939
     13          6           0       -1.462816   -2.824838    0.504938
     14          6           0       -2.567060   -2.971755   -0.377934
     15          6           0       -3.053700   -1.709924   -0.629210
     16          1           0        5.418967   -1.844553   -0.775599
     17          1           0        3.179423   -1.550651   -1.301943
     18          1           0        4.088210   -0.031524   -1.417713
     19          1           0        3.490884    0.487180    0.964299
     20          1           0        2.575209   -1.014616    1.058270
     21          1           0        1.056144   -0.206195   -0.768082
     22          1           0        1.970375    1.316188   -0.838777
     23          1           0       -0.639856    1.980902    1.630406
     24          1           0        0.705667    3.153832   -0.874243
     25          1           0        0.187418    4.059975    0.565268
     26          1           0       -1.684457    3.312283   -1.607643
     27          1           0       -2.211148    3.404219    0.085881
     28          1           0       -0.862271    0.999052   -1.268135
     29          1           0       -3.344169    0.835794   -0.601072
     30          1           0       -2.820291    0.959512    1.076025
     31          1           0       -0.597235   -0.944936    1.361072
     32          1           0       -0.844085   -3.612980    0.906510
     33          1           0       -2.958950   -3.892416   -0.782396
     34          1           0       -3.880449   -1.375057   -1.236101
 ---------------------------------------------------------------------

 SCF Done:  E(RB3LYP) =  -673.902532230     A.U. after    1 cycles

 The electronic state is 1-A.
 Alpha  occ. eigenvalues --  -19.14442 -19.13186 -14.36343 -10.23654 -10.22768
 Alpha  occ. eigenvalues --  -10.22729 -10.22587 -10.19494 -10.19289 -10.18636
 Alpha  occ. eigenvalues --  -10.18551 -10.18084 -10.17638 -10.15210 -10.15164
 Alpha  occ. eigenvalues --   -1.03535  -1.01302  -0.96896  -0.85432  -0.79049
 Alpha  occ. eigenvalues --   -0.77663  -0.70626  -0.70352  -0.68677  -0.63441
 Alpha  occ. eigenvalues --   -0.62925  -0.59305  -0.55924  -0.55711  -0.53733
 Alpha  occ. eigenvalues --   -0.52093  -0.51297  -0.50533  -0.48675  -0.47530
 Alpha  occ. eigenvalues --   -0.44466  -0.43674  -0.42454  -0.41362  -0.40250
 Alpha  occ. eigenvalues --   -0.40094  -0.39892  -0.38029  -0.37499  -0.36784
 Alpha  occ. eigenvalues --   -0.36149  -0.35569  -0.35165  -0.33926  -0.33808
 Alpha  occ. eigenvalues --   -0.32549  -0.32414  -0.28976  -0.26631  -0.25151
 Alpha  occ. eigenvalues --   -0.22144  -0.19746
 Alpha virt. eigenvalues --    0.04623   0.07707   0.08046   0.08865   0.09326
 Alpha virt. eigenvalues --    0.09597   0.10377   0.11045   0.12433   0.13358
 Alpha virt. eigenvalues --    0.14067   0.15028   0.15781   0.16159   0.16821

 Mulliken charges:
               1
     1  O   -0.419343
     2  C   -0.074453
     3  C   -0.180769
     4  C   -0.085972
     5  O   -0.262791
     6  C    0.164707
     7  C   -0.278320
     8  C   -0.251365
     9  C   -0.011772
    10  C   -0.212533
    11  N    0.025920
    12  C   -0.107320
    13  C   -0.175345
    14  C   -0.174187
    15  C   -0.098571
    16  H    0.285599
    17  H    0.090226
    18  H    0.082330
    19  H    0.114378
    20  H    0.119543
    21  H    0.106107
    22  H    0.089678
    23  H    0.084506
    24  H    0.109140
    25  H    0.104064
    26  H    0.105984
    27  H    0.105772
    28  H    0.089561
    29  H    0.115771
    30  H    0.112630
    31  H    0.139111
    32  H    0.089829
    33  H    0.089034
    34  H    0.108851
 Sum of Mulliken charges =  -0.00000

 Dipole moment (field-independent basis, Debye):
    X=             -0.2301    Y=              2.2897    Z=             -2.4330  Tot=              3.3489
 Quadrupole moment (field-independent basis, Debye-Ang):
   XX=            -87.7237   YY=            -89.6618   ZZ=            -90.3141
   XY=             -6.9046   XZ=             -6.5141   YZ=              2.4395

  Exact polarizability: 146.000  -3.939 161.025  11.397   2.146 107.081
 Approx polarizability: 196.694  -6.700 221.921  23.282   4.273 178.335

                      1                      2                      3
                      A                      A                      A
 Frequencies --     21.4681                33.9502                49.0047
 Red. masses --      5.5395                 2.4237                 2.9420
 Frc consts  --      0.0015                 0.0016                 0.0042
 IR Inten    --      0.2195                 5.1738                 2.0919

                      4                      5                      6
                      A                      A                      A
 Frequencies --     58.0838                85.4278                95.9103
 Red. masses --      2.7536                 4.0415                 3.6939
 Frc consts  --      0.0055                 0.0174                 0.0200
 IR Inten    --      1.3980                 0.1998                 0.4744

                      7                      8                      9
                      A                      A                      A
 Frequencies --    113.9222               134.3285               166.7730
 Red. masses --      2.6315                 3.1903                 2.5411
 Frc consts  --      0.0201                 0.0339                 0.0416
 IR Inten    --      1.8308                 0.1126                 0.6897

                     10                     11                     12
                      A                      A                      A
 Frequencies --    199.4592               234.2708               263.6544
 Red. masses --      4.3882                 3.6559                 1.0834
 Frc consts  --      0.1029                 0.1182                 0.0444
 IR Inten    --      3.0037                 0.7708               103.9721

                     13                     14                     15
                      A                      A                      A
 Frequencies --    285.7504               328.7496               345.2809
 Red. masses --      3.1696                 4.2068                 2.9406
 Frc consts  --      0.1525                 0.2679                 0.2065
 IR Inten    --      0.8657                 1.9406                 3.2108

                     16                     17                     18
                      A                      A                      A
 Frequencies --    380.6569               402.0845               465.9514
 Red. masses --      2.7702                 3.6703                 3.5232
 Frc consts  --      0.2365                 0.3496                 0.4507
 IR Inten    --      3.3668                 7.8515                 9.4279

                     19                     20                     21
                      A                      A                      A
 Frequencies --    589.9663               623.5270               630.1005
 Red. masses --      2.3465                 3.9198                 4.1420
 Frc consts  --      0.4812                 0.8979                 0.9689
 IR Inten    --      4.5655                 0.8083                 8.9643

                     22                     23                     24
                      A                      A                      A
 Frequencies --    653.1715               693.2210               726.7647
 Red. masses --      3.5445                 1.2797                 3.1787
 Frc consts  --      0.8910                 0.3623                 0.9892
 IR Inten    --     11.9024                 3.3557                 6.3652

                     25                     26                     27
                      A                      A                      A
 Frequencies --    751.0777               770.8150               778.6352
 Red. masses --      1.1695                 2.1295                 1.0871
 Frc consts  --      0.3887                 0.7455                 0.3883
 IR Inten    --     75.9058                 1.0069                 0.1300

                     28                     29                     30
                      A                      A                      A
 Frequencies --    809.9243               828.6910               853.5163
 Red. masses --      1.2364                 1.5055                 1.2102
 Frc consts  --      0.4779                 0.6091                 0.5194
 IR Inten    --      8.2280                 0.0399                 3.1070

                     31                     32                     33
                      A                      A                      A
 Frequencies --    885.9865               891.8921               895.0732
 Red. masses --      5.5399                 1.1577                 1.9457
 Frc consts  --      2.5622                 0.5426                 0.9184
 IR Inten    --      0.0680                 0.1290                 3.3597

                     34                     35                     36
                      A                      A                      A
 Frequencies --    929.9066               950.1494               983.7149
 Red. masses --      2.0089                 1.8033                 2.3454
 Frc consts  --      1.0235                 0.9592                 1.3372
 IR Inten    --      1.1144                 4.9568                 6.9124

                     37                     38                     39
                      A                      A                      A
 Frequencies --    991.7894              1014.9449              1034.7608
 Red. masses --      3.0598                 2.7939                 2.4238
 Frc consts  --      1.7733                 1.6957                 1.5290
 IR Inten    --     12.7287                13.5062                49.5137

                     40                     41                     42
                      A                      A                      A
 Frequencies --   1064.7341              1080.0211              1081.2011
 Red. masses --      3.5998                 1.8165                 2.1331
 Frc consts  --      2.4044                 1.2484                 1.4692
 IR Inten    --     33.4843                 2.8366                 0.6796

                     43                     44                     45
                      A                      A                      A
 Frequencies --   1092.7966              1102.5969              1115.2042
 Red. masses --      3.5571                 1.4809                 2.1146
 Frc consts  --      2.5028                 1.0608                 1.5495
 IR Inten    --     45.0927                15.0274                 7.9364

                     46                     47                     48
                      A                      A                      A
 Frequencies --   1126.5272              1140.6357              1168.0295
 Red. masses --      1.5706                 2.3275                 2.2250
 Frc consts  --      1.1744                 1.7842                 1.7885
 IR Inten    --     26.0258                 5.2923                86.6128

                     49                     50                     51
                      A                      A                      A
 Frequencies --   1181.5941              1203.7867              1226.8345
 Red. masses --      1.9682                 1.4994                 1.3845
 Frc consts  --      1.6190                 1.2801                 1.2278
 IR Inten    --     48.9932                34.7295                20.3406

                     52                     53                     54
                      A                      A                      A
 Frequencies --   1229.7710              1244.9051              1252.3412
 Red. masses --      1.2212                 1.2304                 1.2424
 Frc consts  --      1.0882                 1.1235                 1.1480
 IR Inten    --      1.2448                46.8769                 3.1101

                     55                     56                     57
                      A                      A                      A
 Frequencies --   1258.0611              1271.3586              1291.1260
 Red. masses --      1.4486                 1.2978                 1.5052
 Frc consts  --      1.3509                 1.2359                 1.4783
 IR Inten    --     14.4922                 6.3505                27.1393

                     58                     59                     60
                      A                      A                      A
 Frequencies --   1305.9876              1309.1478              1312.5161
 Red. masses --      1.1015                 1.4718                 1.2591
 Frc consts  --      1.1070                 1.4862                 1.2779
 IR Inten    --      0.6367                19.7016                 8.9562

                     61                     62                     63
                      A                      A                      A
 Frequencies --   1315.8594              1320.4117              1344.8405
 Red. masses --      2.4762                 1.3562                 1.4781
 Frc consts  --      2.5261                 1.3931                 1.5750
 IR Inten    --     32.7396                22.0166                13.1100

                     64                     65                     66
                      A                      A                      A
 Frequencies --   1393.6070              1419.3199              1422.7907
 Red. masses --      1.5740                 1.2603                 3.3572
 Frc consts  --      1.8011                 1.4958                 4.0042
 IR Inten    --     26.4168                13.1051                 1.1831

                     67                     68                     69
                      A                      A                      A
 Frequencies --   1429.2240              1431.8180              1467.1664
 Red. masses --      1.9137                 1.7958                 1.4759
 Frc consts  --      2.3031                 2.1691                 1.8718
 IR Inten    --      5.5072                14.4091                 8.3409

                     70                     71                     72
                      A                      A                      A
 Frequencies --   1484.0363              1486.5770              1497.2491
 Red. masses --      1.0961                 1.1636                 1.0881
 Frc consts  --      1.4223                 1.5150                 1.4371
 IR Inten    --      1.4087                10.6076                 1.8287

                     73                     74                     75
                      A                      A                      A
 Frequencies --   1503.2498              1517.6203              1532.1793
 Red. masses --      1.1493                 1.0863                 1.0896
 Frc consts  --      1.5301                 1.4741                 1.5071
 IR Inten    --      6.1878                 3.0850                 1.6198

                     76                     77                     78
                      A                      A                      A
 Frequencies --   1537.1856              1560.9693              2954.3900
 Red. masses --      2.5441                 3.9710                 1.0559
 Frc consts  --      3.5419                 5.7009                 5.4299
 IR Inten    --     34.6197                 0.7161                43.5045

                     79                     80                     81
                      A                      A                      A
 Frequencies --   2980.6881              2981.6413              3007.2208
 Red. masses --      1.0649                 1.0927                 1.0676
 Frc consts  --      5.5742                 5.7238                 5.6886
 IR Inten    --     42.6173                41.9259                33.5156

                     82                     83                     84
                      A                      A                      A
 Frequencies --   3015.3938              3037.1060              3051.3392
 Red. masses --      1.1046                 1.0842                 1.0585
 Frc consts  --      5.9178                 5.8924                 5.8065
 IR Inten    --     35.7852                14.6091                18.3431

                     85                     86                     87
                      A                      A                      A
 Frequencies --   3054.8148              3065.3016              3069.0261
 Red. masses --      1.0647                 1.0756                 1.0643
 Frc consts  --      5.8537                 5.9543                 5.9065
 IR Inten    --     19.1779                33.2089                40.0732

                     88                     89                     90
                      A                      A                      A
 Frequencies --   3078.5104              3098.5686              3113.3976
 Red. masses --      1.0950                 1.1053                 1.1046
 Frc consts  --      6.1141                 6.2527                 6.3085
 IR Inten    --     14.9048                37.5135                17.8244

                     91                     92                     93
                      A                      A                      A
 Frequencies --   3126.7685              3236.5144              3247.4171
 Red. masses --      1.1072                 1.0863                 1.0923
 Frc consts  --      6.3777                 6.7044                 6.7866
 IR Inten    --     45.4085                 4.5851                 5.3689

                     94                     95                     96
                      A                      A                      A
 Frequencies --   3261.3625              3271.1551              3831.0687
 Red. masses --      1.1011                 1.1052                 1.0664
 Frc consts  --      6.9003                 6.9680                 9.2214
 IR Inten    --      1.8062                 7.8247                20.7145

 - Thermochemistry -
 -------------------
 Temperature   298.150 Kelvin.  Pressure   1.00000 Atm.
 Atom     1 has atomic number  8 and mass  15.99491

 Molecular mass:   209.14158 amu.
 Principal axes and moments of inertia in atomic units:
                           1         2         3
     Eigenvalues --  2849.468464773.825297110.62182
           X            0.99980  -0.01995  -0.00331
           Y            0.01995   0.99980  -0.00143
           Z            0.00334   0.00136   0.99999
 This molecule is an asymmetric top.
 Rotational symmetry number  1.
 Warning -- assumption of classical behavior for rotation
           may cause significant error
 Rotational temperatures (Kelvin)      0.03040     0.01814     0.01218
 Rotational constants (GHZ):           0.63336     0.37805     0.25381
 Zero-point vibrational energy     778513.7 (Joules/Mol)
                                  186.06923 (Kcal/Mol)
 Warning -- explicit consideration of  19 degrees of freedom as
           vibrations may cause significant error
 Vibrational temperatures:     30.89    48.85    70.51    83.57   122.91
          (Kelvin)            137.99   163.91   193.27   239.95   286.98
                              337.06   379.34   411.13   473.00   496.78
                              547.68   578.51   670.40   848.83   897.12
                              906.57   939.77   997.39  1045.65  1080.63
                             1109.03  1120.28  1165.30  1192.30  1228.02
                             1274.74  1283.23  1287.81  1337.93  1367.05
                             1415.35  1426.96  1460.28  1488.79  1531.91
                             1553.91  1555.61  1572.29  1586.39  1604.53
                             1620.82  1641.12  1680.53  1700.05  1731.98
                             1765.14  1769.37  1791.14  1801.84  1810.07
                             1829.20  1857.64  1879.02  1883.57  1888.42
                             1893.23  1899.78  1934.93  2005.09  2042.08
                             2047.08  2056.33  2060.07  2110.93  2135.20
                             2138.85  2154.21  2162.84  2183.52  2204.46
                             2211.67  2245.89  4250.71  4288.55  4289.92
                             4326.72  4338.48  4369.72  4390.20  4395.20
                             4410.29  4415.64  4429.29  4458.15  4479.48
                             4498.72  4656.62  4672.31  4692.37  4706.46
                             5512.05

 Zero-point correction=                           0.296520 (Hartree/Particle)
 Thermal correction to Energy=                    0.312064
 Thermal correction to Enthalpy=                  0.313008
 Thermal correction to Gibbs Free Energy=         0.251138
 Sum of electronic and zero-point Energies=           -673.606012
 Sum of electronic and thermal Energies=              -673.590468
 Sum of electronic and thermal Enthalpies=            -673.589524
 Sum of electronic and thermal Free Energies=         -673.651394

                     E (Thermal)             CV                S
                      KCal/Mol        Cal/Mol-Kelvin    Cal/Mol-Kelvin
 Total                  195.823             57.586            130.216
 Electronic               0.000              0.000              0.000
 Translational            0.889              2.981             41.917
 Rotational               0.889              2.981             32.936
 Vibrational            194.046             51.625             55.363
 Vibration     1          0.593              1.985              6.494
 Vibration     2          0.594              1.983              5.584
 Vibration     3          0.595              1.978              4.857
 Vibration     4          0.596              1.974              4.521
 Vibration     5          0.601              1.959              3.762
 Vibration     6          0.603              1.952              3.536
 Vibration     7          0.607              1.938              3.201
 Vibration     8          0.613              1.919              2.883
 Vibration     9          0.624              1.883              2.472
 Vibration    10          0.638              1.841              2.138
 Vibration    11          0.654              1.788              1.846
 Vibration    12          0.670              1.740              1.637
 Vibration    13          0.684              1.700              1.499
 Vibration    14          0.712              1.618              1.266
 Vibration    15          0.724              1.585              1.188
 Vibration    16          0.750              1.511              1.037
 Vibration    17          0.768              1.466              0.955
 Vibration    18          0.823              1.326              0.749
 Vibration    19          0.947              1.053              0.467

                           ! Non-Optimized Parameters !
 Normal termination of Gaussian 16 at Sun May 28 13:05:24 2023.
