 Gaussian 16, Revision A.03,
 Gaussian 16:  ES64L-G16RevA.03 25-Dec-2016

 -----------------------------
 # opt freq b3lyp/6-31g(2df,p)
 -----------------------------

 -------------------
 Title Card Required
 -------------------
 Symbolic Z-matrix:
 Charge =  0 Multiplicity = 1

 SCF Done:  E(RB3LYP) =  -731.983594866     A.U. after   13 cycles
 SCF Done:  E(RB3LYP) =  -731.998801528     A.U. after   12 cycles
 SCF Done:  E(RB3LYP) =  -732.003816256     A.U. after   11 cycles
 SCF Done:  E(RB3LYP) =  -732.005117684     A.U. after   11 cycles
 SCF Done:  E(RB3LYP) =  -732.005713533     A.U. after   11 cycles
 SCF Done:  E(RB3LYP) =  -732.005856509     A.U. after   11 cycles
 SCF Done:  E(RB3LYP) =  -732.006023982     A.U. after   10 cycles
 SCF Done:  E(RB3LYP) =  -732.006088651     A.U. after   10 cycles
 SCF Done:  E(RB3LYP) =  -732.006138082     A.U. after   10 cycles
 SCF Done:  E(RB3LYP) =  -732.006167158     A.U. after   10 cycles
 SCF Done:  E(RB3LYP) =  -732.005840190     A.U. after   12 cycles
 SCF Done:  E(RB3LYP) =  -732.007847276     A.U. after   11 cycles
 SCF Done:  E(RB3LYP) =  -732.007934354     A.U. after   10 cycles
 SCF Done:  E(RB3LYP) =  -732.007946072     A.U. after    9 cycles
 SCF Done:  E(RB3LYP) =  -732.007951891     A.U. after    9 cycles
 SCF Done:  E(RB3LYP) =  -732.007952711     A.U. after    8 cycles
 SCF Done:  E(RB3LYP) =  -732.007953115     A.U. after    7 cycles
 SCF Done:  E(RB3LYP) =  -732.007953206     A.U. after    7 cycles
 SCF Done:  E(RB3LYP) =  -732.007953232     A.U. after    6 cycles
 Optimization completed.
    -- Stationary point found.
 Normal termination of Gaussian 16 at Tue May 23 12:16:20 2023.

 ----------------------------------------------------------------------
 #N Geom=AllCheck Guess=TCheck SCRF=Check GenChk RB3LYP/6-31G(2df,p) Fr
 eq
 ----------------------------------------------------------------------

 Structure from the checkpoint file:  "OCCCCCC1C2COCC1qOOrC2.chk"
 -------------------
 Title Card Required
 -------------------
 Charge =  0 Multiplicity = 1

                         Standard orientation:
 ---------------------------------------------------------------------
 Center     Atomic      Atomic             Coordinates (Angstroms)
 Number     Number       Type             X           Y           Z
 ---------------------------------------------------------------------
      1          8           0        5.843120   -0.134293   -0.755210
      2          6           0        4.909816    0.283953    0.230923
      3          6           0        3.518039   -0.129650   -0.227540
      4          6           0        2.418109    0.269494    0.760348
      5          6           0        1.014812   -0.145596    0.298449
      6          6           0       -0.054921    0.278069    1.313976
      7          6           0       -1.546480   -0.012758    1.099081
      8          6           0       -2.222860   -1.410097    0.889523
      9          6           0       -1.616378   -2.176832   -0.287418
     10          8           0       -1.171424   -1.308593   -1.323003
     11          6           0       -1.864667   -0.077121   -1.455051
     12          6           0       -2.429849    0.411835   -0.113569
     13          8           0       -2.959806    1.713646   -0.185092
     14          8           0       -1.850840    2.636194   -0.388828
     15          6           0       -3.463571   -0.629202    0.366014
     16          1           0        6.722045    0.127441   -0.466510
     17          1           0        4.944859    1.376989    0.373243
     18          1           0        5.131452   -0.176153    1.208422
     19          1           0        3.512147   -1.215798   -0.381665
     20          1           0        3.327275    0.323020   -1.208422
     21          1           0        2.441884    1.357401    0.916429
     22          1           0        2.626288   -0.179914    1.742040
     23          1           0        0.996864   -1.228589    0.141528
     24          1           0        0.814716    0.303829   -0.678901
     25          1           0        0.025615    1.363831    1.457309
     26          1           0        0.208684   -0.160990    2.287917
     27          1           0       -2.051770    0.426754    1.968053
     28          1           0       -2.354315   -2.060177    1.757296
     29          1           0       -2.358092   -2.893464   -0.677513
     30          1           0       -0.735498   -2.750218    0.020969
     31          1           0       -2.695028   -0.164993   -2.174899
     32          1           0       -1.144086    0.643806   -1.850828
     33          1           0       -2.102829    3.022882   -1.238871
     34          1           0       -4.083106   -1.104571   -0.399199
     35          1           0       -4.087795   -0.239288    1.172242
 ---------------------------------------------------------------------

 SCF Done:  E(RB3LYP) =  -732.007953232     A.U. after    1 cycles

 The electronic state is 1-A.
 Alpha  occ. eigenvalues --  -19.19595 -19.19278 -19.13811 -19.12560 -10.24003
 Alpha  occ. eigenvalues --  -10.22835 -10.22577 -10.21851 -10.19626 -10.18862
 Alpha  occ. eigenvalues --  -10.18766 -10.17457 -10.17227 -10.16886 -10.16755
 Alpha  occ. eigenvalues --   -1.11514  -1.03195  -1.00623  -0.92317  -0.84735
 Alpha  occ. eigenvalues --   -0.79413  -0.74939  -0.74682  -0.68999  -0.64931
 Alpha  occ. eigenvalues --   -0.63119  -0.61022  -0.58806  -0.57237  -0.53095
 Alpha  occ. eigenvalues --   -0.52054  -0.49877  -0.49581  -0.47784  -0.47343
 Alpha  occ. eigenvalues --   -0.46297  -0.45379  -0.44476  -0.43080  -0.41269
 Alpha  occ. eigenvalues --   -0.40711  -0.39502  -0.39222  -0.38561  -0.38090
 Alpha  occ. eigenvalues --   -0.37122  -0.35566  -0.34267  -0.33611  -0.32474
 Alpha  occ. eigenvalues --   -0.32064  -0.31335  -0.30819  -0.30389  -0.29199
 Alpha  occ. eigenvalues --   -0.28638  -0.25903  -0.25564  -0.24533
 Alpha virt. eigenvalues --    0.02197   0.07462   0.07925   0.08339   0.09963
 Alpha virt. eigenvalues --    0.11315   0.11527   0.12196   0.12418   0.12880
 Alpha virt. eigenvalues --    0.14348   0.15097   0.15959   0.16150   0.16430

 Mulliken charges:
               1
     1  O   -0.422050
     2  C   -0.073090
     3  C   -0.169509
     4  C   -0.186469
     5  C   -0.171935
     6  C   -0.259272
     7  C   -0.014931
     8  C   -0.084379
     9  C   -0.070937
    10  O   -0.255566
    11  C   -0.132196
    12  C    0.418436
    13  O   -0.252420
    14  O   -0.348416
    15  C   -0.290653
    16  H    0.283230
    17  H    0.081045
    18  H    0.080482
    19  H    0.103096
    20  H    0.103320
    21  H    0.091624
    22  H    0.088104
    23  H    0.099123
    24  H    0.103652
    25  H    0.112992
    26  H    0.089835
    27  H    0.086643
    28  H    0.071434
    29  H    0.091577
    30  H    0.107896
    31  H    0.090703
    32  H    0.107900
    33  H    0.312449
    34  H    0.097644
    35  H    0.110639
 Sum of Mulliken charges =  -0.00000

 Dipole moment (field-independent basis, Debye):
    X=             -0.3964    Y=              0.2794    Z=              0.9496  Tot=              1.0663
 Quadrupole moment (field-independent basis, Debye-Ang):
   XX=            -84.0917   YY=            -89.0470   ZZ=            -90.7152
   XY=              6.7916   XZ=              8.2724   YZ=             -7.5316

  Exact polarizability: 151.995   5.493 127.353   0.436  -3.450 116.005
 Approx polarizability: 188.069   6.799 192.220   0.141  -5.740 178.093

                      1                      2                      3
                      A                      A                      A
 Frequencies --     21.7755                43.4014                60.4244
 Red. masses --      3.2848                 2.0816                 4.9214
 Frc consts  --      0.0009                 0.0023                 0.0106
 IR Inten    --      0.8937                 2.6372                 0.5961

                      4                      5                      6
                      A                      A                      A
 Frequencies --     72.1960               103.4766               122.9188
 Red. masses --      3.9109                 3.6718                 2.1084
 Frc consts  --      0.0120                 0.0232                 0.0188
 IR Inten    --      1.5829                 2.7072                 1.8874

                      7                      8                      9
                      A                      A                      A
 Frequencies --    144.2648               155.1756               169.1788
 Red. masses --      3.2944                 2.9971                 3.6799
 Frc consts  --      0.0404                 0.0425                 0.0621
 IR Inten    --      0.2216                 2.0839                 2.7075

                     10                     11                     12
                      A                      A                      A
 Frequencies --    179.5486               226.6238               228.7731
 Red. masses --      4.5909                 1.3134                 1.7849
 Frc consts  --      0.0872                 0.0397                 0.0550
 IR Inten    --      7.7635                78.5620                30.7238

                     13                     14                     15
                      A                      A                      A
 Frequencies --    250.7647               255.7907               264.9296
 Red. masses --      2.9417                 4.6136                 1.0812
 Frc consts  --      0.1090                 0.1779                 0.0447
 IR Inten    --      1.6230                 4.6765               101.0447

                     16                     17                     18
                      A                      A                      A
 Frequencies --    306.9679               370.1457               407.8260
 Red. masses --      3.4789                 3.9071                 2.9299
 Frc consts  --      0.1931                 0.3154                 0.2871
 IR Inten    --      9.7746                 4.9413                 1.8970

                     19                     20                     21
                      A                      A                      A
 Frequencies --    438.8755               454.3610               489.9357
 Red. masses --      2.6470                 3.5031                 3.3379
 Frc consts  --      0.3004                 0.4261                 0.4721
 IR Inten    --      1.2921                 7.3253                 6.0135

                     22                     23                     24
                      A                      A                      A
 Frequencies --    522.8319               576.0769               675.8098
 Red. masses --      5.1698                 4.5807                 2.9996
 Frc consts  --      0.8326                 0.8957                 0.8072
 IR Inten    --      1.5069                 0.8492                 1.0953

                     25                     26                     27
                      A                      A                      A
 Frequencies --    692.7887               731.2661               759.3929
 Red. masses --      3.5458                 1.2060                 1.3029
 Frc consts  --      1.0027                 0.3800                 0.4427
 IR Inten    --      2.1464                 2.4836                 0.4382

                     28                     29                     30
                      A                      A                      A
 Frequencies --    793.1816               827.7099               840.2946
 Red. masses --      2.0568                 2.9080                 1.7361
 Frc consts  --      0.7624                 1.1738                 0.7223
 IR Inten    --      3.3339                 5.3842                 2.2906

                     31                     32                     33
                      A                      A                      A
 Frequencies --    864.0953               909.1145               922.0660
 Red. masses --      1.9913                 3.0617                 3.6559
 Frc consts  --      0.8760                 1.4909                 1.8314
 IR Inten    --      1.7670                 6.0516                11.2490

                     34                     35                     36
                      A                      A                      A
 Frequencies --    934.6171               963.7629               965.2776
 Red. masses --      3.0353                 1.6573                 1.4519
 Frc consts  --      1.5621                 0.9070                 0.7971
 IR Inten    --     13.3320                 2.9921                 2.3192

                     37                     38                     39
                      A                      A                      A
 Frequencies --    980.4035              1009.3898              1015.0577
 Red. masses --      2.5820                 1.7190                 3.2493
 Frc consts  --      1.4622                 1.0319                 1.9725
 IR Inten    --      8.0127                 6.3908                 2.9937

                     40                     41                     42
                      A                      A                      A
 Frequencies --   1037.0642              1060.2173              1063.8646
 Red. masses --      2.0989                 2.7462                 2.2854
 Frc consts  --      1.3300                 1.8187                 1.5240
 IR Inten    --     11.7360                49.7546                 0.2392

                     43                     44                     45
                      A                      A                      A
 Frequencies --   1084.6268              1090.4338              1111.6578
 Red. masses --      1.9156                 3.6505                 1.4542
 Frc consts  --      1.3277                 2.5574                 1.0588
 IR Inten    --     43.8175                37.0113                 5.4769

                     46                     47                     48
                      A                      A                      A
 Frequencies --   1125.8491              1138.5525              1159.3831
 Red. masses --      2.4324                 1.8808                 3.5994
 Frc consts  --      1.8165                 1.4364                 2.8506
 IR Inten    --      8.3612                15.2325                74.6291

                     49                     50                     51
                      A                      A                      A
 Frequencies --   1183.5811              1197.5005              1205.3971
 Red. masses --      1.9072                 2.6663                 1.4262
 Frc consts  --      1.5742                 2.2528                 1.2209
 IR Inten    --      0.5594                 5.5305                 3.4251

                     52                     53                     54
                      A                      A                      A
 Frequencies --   1220.7219              1232.1942              1241.8718
 Red. masses --      1.2462                 1.6493                 1.5480
 Frc consts  --      1.0941                 1.4754                 1.4066
 IR Inten    --     25.5365                 2.7660                 6.1686

                     55                     56                     57
                      A                      A                      A
 Frequencies --   1259.3047              1270.5768              1281.5178
 Red. masses --      1.1663                 1.6644                 1.3238
 Frc consts  --      1.0897                 1.5831                 1.2810
 IR Inten    --      7.2801                15.2189                 0.0653

                     58                     59                     60
                      A                      A                      A
 Frequencies --   1285.2054              1296.7878              1314.7951
 Red. masses --      1.3936                 1.5503                 1.0881
 Frc consts  --      1.3562                 1.5360                 1.1082
 IR Inten    --     12.2766                 1.5970                 0.6509

                     61                     62                     63
                      A                      A                      A
 Frequencies --   1329.1670              1330.1477              1345.1726
 Red. masses --      1.3270                 1.2045                 1.4537
 Frc consts  --      1.3813                 1.2556                 1.5498
 IR Inten    --      8.9833                 4.9353                 1.1066

                     64                     65                     66
                      A                      A                      A
 Frequencies --   1353.1177              1373.0760              1381.2894
 Red. masses --      1.2092                 1.1508                 1.3953
 Frc consts  --      1.3044                 1.2784                 1.5685
 IR Inten    --      1.4800                34.1005                 4.4181

                     67                     68                     69
                      A                      A                      A
 Frequencies --   1388.2490              1397.2169              1413.5725
 Red. masses --      1.4312                 1.5243                 1.3890
 Frc consts  --      1.6251                 1.7533                 1.6352
 IR Inten    --      9.5473                 1.2351                 1.9846

                     70                     71                     72
                      A                      A                      A
 Frequencies --   1442.7126              1463.0753              1466.7369
 Red. masses --      1.3058                 1.4595                 1.0884
 Frc consts  --      1.6013                 1.8407                 1.3796
 IR Inten    --     12.6424                 9.3934                 0.3196

                     73                     74                     75
                      A                      A                      A
 Frequencies --   1478.2746              1490.8575              1499.1296
 Red. masses --      1.0854                 1.0866                 1.1375
 Frc consts  --      1.3975                 1.4230                 1.5062
 IR Inten    --      3.2681                 0.0848                 5.6641

                     76                     77                     78
                      A                      A                      A
 Frequencies --   1505.0965              1513.4907              1525.1694
 Red. masses --      1.0955                 1.0801                 1.0919
 Frc consts  --      1.4622                 1.4577                 1.4965
 IR Inten    --      2.5054                 0.3853                 4.3791

                     79                     80                     81
                      A                      A                      A
 Frequencies --   1528.9293              2953.9819              2964.0966
 Red. masses --      1.0889                 1.0542                 1.0706
 Frc consts  --      1.4997                 5.4196                 5.5419
 IR Inten    --      3.0004                51.8043                66.2616

                     82                     83                     84
                      A                      A                      A
 Frequencies --   2971.0061              2978.3393              2992.2050
 Red. masses --      1.0721                 1.1057                 1.0640
 Frc consts  --      5.5757                 5.7785                 5.6127
 IR Inten    --     92.3619                51.5701                 8.4757

                     85                     86                     87
                      A                      A                      A
 Frequencies --   2999.3053              3026.0853              3026.4686
 Red. masses --      1.0592                 1.0962                 1.0894
 Frc consts  --      5.6142                 5.9143                 5.8793
 IR Inten    --     40.4487                 9.4432                24.4423

                     88                     89                     90
                      A                      A                      A
 Frequencies --   3028.5661              3036.5319              3054.5167
 Red. masses --      1.0590                 1.0914                 1.0627
 Frc consts  --      5.7227                 5.9292                 5.8416
 IR Inten    --     26.4818                13.9328                35.5819

                     91                     92                     93
                      A                      A                      A
 Frequencies --   3057.6900              3060.2126              3071.1142
 Red. masses --      1.0749                 1.0713                 1.1048
 Frc consts  --      5.9212                 5.9111                 6.1393
 IR Inten    --     11.2051                56.0485                32.6827

                     94                     95                     96
                      A                      A                      A
 Frequencies --   3083.5571              3086.0958              3098.5794
 Red. masses --      1.0906                 1.0885                 1.1035
 Frc consts  --      6.1098                 6.1080                 6.2423
 IR Inten    --     33.5239                27.0385                65.2329

                     97                     98                     99
                      A                      A                      A
 Frequencies --   3124.4537              3765.4393              3829.8803
 Red. masses --      1.1079                 1.0686                 1.0663
 Frc consts  --      6.3723                 8.9268                 9.2155
 IR Inten    --     21.5544                42.9867                17.1980

 - Thermochemistry -
 -------------------
 Temperature   298.150 Kelvin.  Pressure   1.00000 Atm.
 Atom     1 has atomic number  8 and mass  15.99491

 Molecular mass:   216.13616 amu.
 Principal axes and moments of inertia in atomic units:
                           1         2         3
     Eigenvalues --  1688.998267188.007207761.99920
           X            0.99993   0.01098   0.00418
           Y           -0.01090   0.99979  -0.01724
           Z           -0.00437   0.01719   0.99984
 This molecule is an asymmetric top.
 Rotational symmetry number  1.
 Warning -- assumption of classical behavior for rotation
           may cause significant error
 Rotational temperatures (Kelvin)      0.05128     0.01205     0.01116
 Rotational constants (GHZ):           1.06853     0.25108     0.23251
 Zero-point vibrational energy     801762.4 (Joules/Mol)
                                  191.62581 (Kcal/Mol)
 Warning -- explicit consideration of  23 degrees of freedom as
           vibrations may cause significant error
 Vibrational temperatures:     31.33    62.44    86.94   103.87   148.88
          (Kelvin)            176.85   207.56   223.26   243.41   258.33
                              326.06   329.15   360.79   368.03   381.17
                              441.66   532.56   586.77   631.44   653.72
                              704.91   752.24   828.85   972.34   996.77
                             1052.13  1092.60  1141.21  1190.89  1209.00
                             1243.24  1308.01  1326.65  1344.71  1386.64
                             1388.82  1410.58  1452.29  1460.44  1492.10
                             1525.42  1530.66  1560.54  1568.89  1599.43
                             1619.85  1638.12  1668.09  1702.91  1722.94
                             1734.30  1756.35  1772.85  1786.78  1811.86
                             1828.08  1843.82  1849.12  1865.79  1891.70
                             1912.37  1913.79  1935.40  1946.83  1975.55
                             1987.37  1997.38  2010.28  2033.82  2075.74
                             2105.04  2110.31  2126.91  2145.01  2156.91
                             2165.50  2177.58  2194.38  2199.79  4250.12
                             4264.67  4274.62  4285.17  4305.12  4315.33
                             4353.86  4354.41  4357.43  4368.89  4394.77
                             4399.33  4402.96  4418.65  4436.55  4440.20
                             4458.16  4495.39  5417.63  5510.34

 Zero-point correction=                           0.305375 (Hartree/Particle)
 Thermal correction to Energy=                    0.321711
 Thermal correction to Enthalpy=                  0.322656
 Thermal correction to Gibbs Free Energy=         0.260272
 Sum of electronic and zero-point Energies=           -731.702578
 Sum of electronic and thermal Energies=              -731.686242
 Sum of electronic and thermal Enthalpies=            -731.685298
 Sum of electronic and thermal Free Energies=         -731.747681

                     E (Thermal)             CV                S
                      KCal/Mol        Cal/Mol-Kelvin    Cal/Mol-Kelvin
 Total                  201.877             60.595            131.297
 Electronic               0.000              0.000              0.000
 Translational            0.889              2.981             42.015
 Rotational               0.889              2.981             32.910
 Vibrational            200.099             54.633             56.372
 Vibration     1          0.593              1.985              6.465
 Vibration     2          0.595              1.980              5.097
 Vibration     3          0.597              1.973              4.443
 Vibration     4          0.598              1.967              4.093
 Vibration     5          0.605              1.946              3.388
 Vibration     6          0.610              1.930              3.054
 Vibration     7          0.616              1.909              2.747
 Vibration     8          0.620              1.897              2.608
 Vibration     9          0.625              1.880              2.445
 Vibration    10          0.629              1.867              2.333
 Vibration    11          0.650              1.800              1.906
 Vibration    12          0.651              1.797              1.889
 Vibration    13          0.663              1.761              1.725
 Vibration    14          0.666              1.753              1.690
 Vibration    15          0.671              1.737              1.629
 Vibration    16          0.697              1.660              1.379
 Vibration    17          0.742              1.534              1.079
 Vibration    18          0.772              1.453              0.934
 Vibration    19          0.799              1.385              0.830
 Vibration    20          0.813              1.351              0.783
 Vibration    21          0.846              1.272              0.684
 Vibration    22          0.878              1.199              0.603
 Vibration    23          0.932              1.083              0.493

 Optimization completed.
    -- Stationary point found.
 Normal termination of Gaussian 16 at Tue May 23 15:12:00 2023.
