 Gaussian 16, Revision A.03,
 Gaussian 16:  ES64L-G16RevA.03 25-Dec-2016

 -----------------------------
 # opt freq b3lyp/6-31g(2df,p)
 -----------------------------

 -------------------
 Title Card Required
 -------------------
 Symbolic Z-matrix:
 Charge =  0 Multiplicity = 1

 SCF Done:  E(RB3LYP) =  -837.519801644     A.U. after   15 cycles
 SCF Done:  E(RB3LYP) =  -837.535249141     A.U. after   13 cycles
 SCF Done:  E(RB3LYP) =  -837.535383584     A.U. after   13 cycles
 SCF Done:  E(RB3LYP) =  -837.538917269     A.U. after   13 cycles
 SCF Done:  E(RB3LYP) =  -837.543072938     A.U. after   13 cycles
 SCF Done:  E(RB3LYP) =  -837.546888129     A.U. after   13 cycles
 SCF Done:  E(RB3LYP) =  -837.550303216     A.U. after   13 cycles
 SCF Done:  E(RB3LYP) =  -837.552671290     A.U. after   13 cycles
 SCF Done:  E(RB3LYP) =  -837.555235182     A.U. after   13 cycles
 SCF Done:  E(RB3LYP) =  -837.557970856     A.U. after   14 cycles
 SCF Done:  E(RB3LYP) =  -837.560778885     A.U. after   12 cycles
 SCF Done:  E(RB3LYP) =  -837.561275109     A.U. after   13 cycles
 SCF Done:  E(RB3LYP) =  -837.561859251     A.U. after   12 cycles
 SCF Done:  E(RB3LYP) =  -837.562577497     A.U. after   13 cycles
 SCF Done:  E(RB3LYP) =  -837.562619004     A.U. after   12 cycles
 SCF Done:  E(RB3LYP) =  -837.562633512     A.U. after   10 cycles
 SCF Done:  E(RB3LYP) =  -837.562634530     A.U. after    8 cycles
 SCF Done:  E(RB3LYP) =  -837.562634670     A.U. after    7 cycles
 SCF Done:  E(RB3LYP) =  -837.562634697     A.U. after    6 cycles
 Optimization completed.
    -- Stationary point found.
 Normal termination of Gaussian 16 at Mon May 29 00:45:40 2023.

 ----------------------------------------------------------------------
 #N Geom=AllCheck Guess=TCheck SCRF=Check GenChk RB3LYP/6-31G(2df,p) Fr
 eq
 ----------------------------------------------------------------------

 Structure from the checkpoint file:  "OCCCCCCCdNNNCCdCdNOO.chk"
 -------------------
 Title Card Required
 -------------------
 Charge =  0 Multiplicity = 1

                         Standard orientation:
 ---------------------------------------------------------------------
 Center     Atomic      Atomic             Coordinates (Angstroms)
 Number     Number       Type             X           Y           Z
 ---------------------------------------------------------------------
      1          8           0        8.204692    2.036692   -0.375707
      2          6           0        6.906391    2.032050    0.199514
      3          6           0        6.194076    0.765028   -0.254456
      4          6           0        4.774090    0.641457    0.305541
      5          6           0        4.054487   -0.631602   -0.152841
      6          6           0        2.633535   -0.760335    0.405147
      7          6           0        1.914444   -2.037108   -0.066705
      8          6           0        0.548088   -2.188466    0.529781
      9          7           0       -0.495177   -2.229613   -0.200637
     10          7           0       -1.704193   -2.447112    0.423560
     11          7           0       -2.778335   -1.936492   -0.326459
     12          6           0       -3.038968   -0.511186   -0.100003
     13          6           0       -4.180796   -0.063544   -0.974511
     14          6           0       -5.274798    0.488146   -0.520042
     15          7           0       -6.353923    0.885239   -0.073139
     16          8           0       -6.420396    2.304882    0.045779
     17          8           0       -7.650980    2.600868    0.688087
     18          1           0        8.656169    2.837065   -0.092923
     19          1           0        6.328023    2.916667   -0.115192
     20          1           0        6.958623    2.055036    1.300867
     21          1           0        6.797062   -0.099330    0.050273
     22          1           0        6.169773    0.755363   -1.351169
     23          1           0        4.183193    1.518210    0.005706
     24          1           0        4.809129    0.661692    1.403900
     25          1           0        4.643368   -1.509860    0.145798
     26          1           0        4.016798   -0.652461   -1.250498
     27          1           0        2.039541    0.114078    0.109121
     28          1           0        2.670434   -0.746517    1.503433
     29          1           0        2.527319   -2.908524    0.207256
     30          1           0        1.817199   -2.041441   -1.156782
     31          1           0        0.483563   -2.258960    1.626936
     32          1           0       -1.705387   -2.116434    1.396303
     33          1           0       -3.596977   -2.493334   -0.107374
     34          1           0       -2.125689    0.024725   -0.386341
     35          1           0       -3.250251   -0.266599    0.955007
     36          1           0       -4.078408   -0.231245   -2.043907
     37          1           0       -8.271917    2.591545   -0.057518
 ---------------------------------------------------------------------

 SCF Done:  E(RB3LYP) =  -837.562634697     A.U. after    1 cycles

 The electronic state is 1-A.
 Alpha  occ. eigenvalues --  -19.24366 -19.20386 -19.13007 -14.40150 -14.38277
 Alpha  occ. eigenvalues --  -14.35216 -14.35114 -10.24263 -10.22983 -10.22370
 Alpha  occ. eigenvalues --  -10.21764 -10.21156 -10.18562 -10.18388 -10.18104
 Alpha  occ. eigenvalues --  -10.18039 -10.17556  -1.15720  -1.02413  -1.01093
 Alpha  occ. eigenvalues --   -0.98225  -0.91013  -0.84712  -0.81340  -0.79862
 Alpha  occ. eigenvalues --   -0.77284  -0.74064  -0.70446  -0.66030  -0.63860
 Alpha  occ. eigenvalues --   -0.59261  -0.58010  -0.57805  -0.57310  -0.52694
 Alpha  occ. eigenvalues --   -0.52310  -0.51168  -0.50798  -0.50285  -0.48325
 Alpha  occ. eigenvalues --   -0.48058  -0.47107  -0.45600  -0.43436  -0.42370
 Alpha  occ. eigenvalues --   -0.41581  -0.41110  -0.40598  -0.39578  -0.37888
 Alpha  occ. eigenvalues --   -0.37250  -0.36324  -0.36143  -0.35816  -0.33587
 Alpha  occ. eigenvalues --   -0.33391  -0.32978  -0.32393  -0.31737  -0.31321
 Alpha  occ. eigenvalues --   -0.27172  -0.27016  -0.26367  -0.26360  -0.25043
 Alpha  occ. eigenvalues --   -0.22089
 Alpha virt. eigenvalues --   -0.02500  -0.00539   0.00936   0.04490   0.07944
 Alpha virt. eigenvalues --    0.08256   0.08780   0.09682   0.10622   0.10719
 Alpha virt. eigenvalues --    0.11538   0.12214   0.12661   0.13213   0.14244

 Mulliken charges:
               1
     1  O   -0.421430
     2  C   -0.073918
     3  C   -0.164570
     4  C   -0.187597
     5  C   -0.174560
     6  C   -0.181360
     7  C   -0.251075
     8  C    0.014617
     9  N   -0.087044
    10  N   -0.243087
    11  N   -0.239553
    12  C   -0.165050
    13  C   -0.242991
    14  C    0.394759
    15  N   -0.190184
    16  O   -0.165391
    17  O   -0.275778
    18  H    0.284541
    19  H    0.082407
    20  H    0.081788
    21  H    0.103865
    22  H    0.104695
    23  H    0.093802
    24  H    0.092177
    25  H    0.094936
    26  H    0.098431
    27  H    0.100344
    28  H    0.091064
    29  H    0.104315
    30  H    0.117297
    31  H    0.068023
    32  H    0.208916
    33  H    0.236407
    34  H    0.137437
    35  H    0.093063
    36  H    0.145790
    37  H    0.314914
 Sum of Mulliken charges =  -0.00000

 Dipole moment (field-independent basis, Debye):
    X=              0.3500    Y=              1.1769    Z=              1.2075  Tot=              1.7221
 Quadrupole moment (field-independent basis, Debye-Ang):
   XX=           -101.9970   YY=           -102.5265   ZZ=           -100.9047
   XY=              8.2846   XZ=             15.9014   YZ=             -6.4154

  Exact polarizability: 251.332 -24.818 144.215  -6.648   6.316 121.340
 Approx polarizability: 297.679 -39.311 203.693 -13.673  14.846 197.070

                      1                      2                      3
                      A                      A                      A
 Frequencies --     10.2211                24.1812                30.9551
 Red. masses --      6.8895                 5.1746                 2.2532
 Frc consts  --      0.0004                 0.0018                 0.0013
 IR Inten    --      0.0734                 0.4357                 4.5782

                      4                      5                      6
                      A                      A                      A
 Frequencies --     38.7213                53.4261                54.5307
 Red. masses --      3.9922                 4.1789                 3.4526
 Frc consts  --      0.0035                 0.0070                 0.0060
 IR Inten    --      1.0441                 1.3194                 0.6837

                      7                      8                      9
                      A                      A                      A
 Frequencies --     81.6414                90.4788                96.8353
 Red. masses --      3.7746                 3.8849                 2.1586
 Frc consts  --      0.0148                 0.0187                 0.0119
 IR Inten    --      0.5662                 5.7244                 1.8089

                     10                     11                     12
                      A                      A                      A
 Frequencies --    105.1766               127.7365               141.8159
 Red. masses --      3.9092                 4.4667                 2.2360
 Frc consts  --      0.0255                 0.0429                 0.0265
 IR Inten    --      6.9663                 3.4075                 2.1648

                     13                     14                     15
                      A                      A                      A
 Frequencies --    154.5809               163.4457               193.4992
 Red. masses --      2.1533                 7.0360                 2.8769
 Frc consts  --      0.0303                 0.1107                 0.0635
 IR Inten    --      3.7699                 1.1760                16.5302

                     16                     17                     18
                      A                      A                      A
 Frequencies --    222.6628               247.3863               248.8121
 Red. masses --      4.1764                 3.6283                 2.9720
 Frc consts  --      0.1220                 0.1308                 0.1084
 IR Inten    --      1.6038                 2.4631                29.3570

                     19                     20                     21
                      A                      A                      A
 Frequencies --    264.9058               271.4147               315.4024
 Red. masses --      1.0808                 3.2125                 1.4534
 Frc consts  --      0.0447                 0.1394                 0.0852
 IR Inten    --    103.3354                 7.0681                62.0302

                     22                     23                     24
                      A                      A                      A
 Frequencies --    347.4068               386.5190               402.5208
 Red. masses --      3.0123                 4.8049                 3.1878
 Frc consts  --      0.2142                 0.4229                 0.3043
 IR Inten    --     18.6795                 6.2738                10.0982

                     25                     26                     27
                      A                      A                      A
 Frequencies --    433.0940               491.0853               511.8752
 Red. masses --      5.2064                 4.4200                 3.1333
 Frc consts  --      0.5754                 0.6280                 0.4837
 IR Inten    --      9.2611                13.4940                 0.4339

                     28                     29                     30
                      A                      A                      A
 Frequencies --    548.9672               561.8066               594.0356
 Red. masses --      3.0043                 5.1508                 3.9817
 Frc consts  --      0.5334                 0.9579                 0.8278
 IR Inten    --      7.9989                 5.0834                 2.7358

                     31                     32                     33
                      A                      A                      A
 Frequencies --    630.2416               726.0114               734.5208
 Red. masses --      6.0030                 1.7040                 1.0741
 Frc consts  --      1.4049                 0.5292                 0.3414
 IR Inten    --      5.1085               107.9008                 6.9385

                     34                     35                     36
                      A                      A                      A
 Frequencies --    751.2623               786.0386               790.0688
 Red. masses --      1.1202                 1.4808                10.4503
 Frc consts  --      0.3725                 0.5391                 3.8434
 IR Inten    --      1.5975                25.9780               114.5611

                     37                     38                     39
                      A                      A                      A
 Frequencies --    807.5233               815.3031               881.4600
 Red. masses --      1.3339                 1.3287                 1.3019
 Frc consts  --      0.5125                 0.5204                 0.5960
 IR Inten    --     29.4875                23.3702                 2.3932

                     40                     41                     42
                      A                      A                      A
 Frequencies --    933.2379               953.2093               973.8724
 Red. masses --      1.5269                 2.8380                 5.9989
 Frc consts  --      0.7835                 1.5193                 3.3522
 IR Inten    --     10.0632                15.6251                64.5953

                     43                     44                     45
                      A                      A                      A
 Frequencies --    985.5955               998.5536              1003.7206
 Red. masses --      2.0756                 1.8690                 4.0970
 Frc consts  --      1.1879                 1.0980                 2.4319
 IR Inten    --      4.6769                 5.9717                12.6790

                     46                     47                     48
                      A                      A                      A
 Frequencies --   1043.4958              1053.7290              1063.1099
 Red. masses --      2.1830                 2.7395                 2.9726
 Frc consts  --      1.4005                 1.7922                 1.9795
 IR Inten    --      8.0290                30.7587                30.2994

                     49                     50                     51
                      A                      A                      A
 Frequencies --   1067.6154              1073.6925              1088.6437
 Red. masses --      2.3042                 2.7686                 3.0215
 Frc consts  --      1.5474                 1.8805                 2.1098
 IR Inten    --      1.3733                25.4977                12.2063

                     52                     53                     54
                      A                      A                      A
 Frequencies --   1098.0791              1115.0617              1158.7870
 Red. masses --      3.5847                 2.2439                 2.2178
 Frc consts  --      2.5466                 1.6438                 1.7546
 IR Inten    --     13.8374                33.8536                24.1453

                     55                     56                     57
                      A                      A                      A
 Frequencies --   1181.0832              1189.6681              1203.0004
 Red. masses --      1.7403                 2.0092                 1.5235
 Frc consts  --      1.4303                 1.6754                 1.2990
 IR Inten    --      7.7403                 7.1083                 2.8537

                     58                     59                     60
                      A                      A                      A
 Frequencies --   1218.0309              1252.4633              1254.3939
 Red. masses --      1.2243                 1.3713                 1.3754
 Frc consts  --      1.0702                 1.2674                 1.2751
 IR Inten    --     19.2221                23.5018                 3.2099

                     61                     62                     63
                      A                      A                      A
 Frequencies --   1263.9496              1298.5101              1305.0185
 Red. masses --      1.2851                 1.2295                 1.2985
 Frc consts  --      1.2096                 1.2214                 1.3030
 IR Inten    --     12.0717                 1.1265                30.9484

                     64                     65                     66
                      A                      A                      A
 Frequencies --   1314.8980              1330.9770              1333.3428
 Red. masses --      1.0690                 1.0960                 1.1008
 Frc consts  --      1.0890                 1.1440                 1.1530
 IR Inten    --      0.5071                 0.4304                 0.0096

                     67                     68                     69
                      A                      A                      A
 Frequencies --   1344.3959              1347.0949              1376.6865
 Red. masses --      1.3467                 1.3425                 1.3912
 Frc consts  --      1.4341                 1.4354                 1.5535
 IR Inten    --     28.4984                 0.7878                18.8923

                     70                     71                     72
                      A                      A                      A
 Frequencies --   1391.4016              1402.7149              1430.1324
 Red. masses --      1.5380                 1.6298                 1.3042
 Frc consts  --      1.7544                 1.8894                 1.5716
 IR Inten    --      1.1722                 0.0251                35.1677

                     73                     74                     75
                      A                      A                      A
 Frequencies --   1436.2911              1463.5812              1472.4455
 Red. masses --      1.8936                 1.4666                 1.0860
 Frc consts  --      2.3016                 1.8509                 1.3873
 IR Inten    --     15.3985                 9.8672                 1.2885

                     76                     77                     78
                      A                      A                      A
 Frequencies --   1484.0579              1487.8958              1488.4695
 Red. masses --      1.0719                 1.1052                 1.1155
 Frc consts  --      1.3910                 1.4415                 1.4561
 IR Inten    --      0.1623                 7.7919                 9.4284

                     79                     80                     81
                      A                      A                      A
 Frequencies --   1497.5865              1499.1023              1511.4751
 Red. masses --      1.1240                 1.0956                 1.0978
 Frc consts  --      1.4852                 1.4507                 1.4776
 IR Inten    --      4.8879                 0.0263                 3.0067

                     82                     83                     84
                      A                      A                      A
 Frequencies --   1526.0031              1529.2307              1715.9388
 Red. masses --      1.1896                 1.0891                 7.8593
 Frc consts  --      1.6321                 1.5007                13.6345
 IR Inten    --      2.2873                 2.5824                 2.4679

                     85                     86                     87
                      A                      A                      A
 Frequencies --   2091.2027              2954.6517              2957.0236
 Red. masses --     11.6793                 1.0542                 1.0693
 Frc consts  --     30.0927                 5.4222                 5.5089
 IR Inten    --     92.2853                50.1163                38.6359

                     88                     89                     90
                      A                      A                      A
 Frequencies --   2979.1974              2988.8241              3000.9777
 Red. masses --      1.1057                 1.0813                 1.0602
 Frc consts  --      5.7819                 5.6909                 5.6254
 IR Inten    --     51.7539                40.3765                10.3508

                     91                     92                     93
                      A                      A                      A
 Frequencies --   3002.9622              3005.2946              3014.4598
 Red. masses --      1.0667                 1.0591                 1.0637
 Frc consts  --      5.6677                 5.6358                 5.6951
 IR Inten    --     13.8083                 2.2033                64.5761

                     94                     95                     96
                      A                      A                      A
 Frequencies --   3024.9086              3029.6344              3038.0958
 Red. masses --      1.0966                 1.0594                 1.0988
 Frc consts  --      5.9120                 5.7292                 5.9757
 IR Inten    --      2.3137                56.5670                 5.7346

                     97                     98                     99
                      A                      A                      A
 Frequencies --   3049.6046              3058.1532              3075.0194
 Red. masses --      1.0904                 1.1028                 1.1048
 Frc consts  --      5.9751                 6.0769                 6.1551
 IR Inten    --     11.8809                24.0364                79.6973

                    100                    101                    102
                      A                      A                      A
 Frequencies --   3088.8908              3161.2405              3308.5272
 Red. masses --      1.0956                 1.0868                 1.0721
 Frc consts  --      6.1592                 6.3991                 6.9143
 IR Inten    --     38.8958                 1.8245                19.3917

                    103                    104                    105
                      A                      A                      A
 Frequencies --   3533.4424              3715.2367              3830.4935
 Red. masses --      1.0753                 1.0686                 1.0664
 Frc consts  --      7.9098                 8.6900                 9.2185
 IR Inten    --      2.8973                38.9289                18.6053

 - Thermochemistry -
 -------------------
 Temperature   298.150 Kelvin.  Pressure   1.00000 Atm.
 Atom     1 has atomic number  8 and mass  15.99491

 Molecular mass:   244.15354 amu.
 Principal axes and moments of inertia in atomic units:
                           1         2         3
     Eigenvalues --  2799.35190********************
           X            0.99997   0.00730   0.00164
           Y           -0.00729   0.99996  -0.00448
           Z           -0.00167   0.00447   0.99999
 This molecule is an asymmetric top.
 Rotational symmetry number  1.
 Warning -- assumption of classical behavior for rotation
           may cause significant error
 Rotational temperatures (Kelvin)      0.03094     0.00391     0.00353
 Rotational constants (GHZ):           0.64470     0.08154     0.07361
 Zero-point vibrational energy     814690.7 (Joules/Mol)
                                  194.71576 (Kcal/Mol)
 Warning -- explicit consideration of  30 degrees of freedom as
           vibrations may cause significant error
 Vibrational temperatures:     14.71    34.79    44.54    55.71    76.87
          (Kelvin)             78.46   117.46   130.18   139.32   151.33
                              183.78   204.04   222.41   235.16   278.40
                              320.36   355.93   357.99   381.14   390.51
                              453.79   499.84   556.11   579.14   623.13
                              706.56   736.47   789.84   808.31   854.68
                              906.78  1044.57  1056.81  1080.90  1130.93
                             1136.73  1161.85  1173.04  1268.22  1342.72
                             1371.46  1401.19  1418.05  1436.70  1444.13
                             1501.36  1516.08  1529.58  1536.06  1544.80
                             1566.32  1579.89  1604.33  1667.24  1699.32
                             1711.67  1730.85  1752.47  1802.02  1804.79
                             1818.54  1868.27  1877.63  1891.84  1914.98
                             1918.38  1934.29  1938.17  1980.74  2001.92
                             2018.19  2057.64  2066.50  2105.77  2118.52
                             2135.23  2140.75  2141.58  2154.69  2156.87
                             2174.68  2195.58  2200.22  2468.85  3008.77
                             4251.08  4254.50  4286.40  4300.25  4317.74
                             4320.59  4323.95  4337.14  4352.17  4358.97
                             4371.14  4387.70  4400.00  4424.27  4444.22
                             4548.32  4760.23  5083.84  5345.40  5511.23

 Zero-point correction=                           0.310299 (Hartree/Particle)
 Thermal correction to Energy=                    0.331134
 Thermal correction to Enthalpy=                  0.332078
 Thermal correction to Gibbs Free Energy=         0.255576
 Sum of electronic and zero-point Energies=           -837.252335
 Sum of electronic and thermal Energies=              -837.231501
 Sum of electronic and thermal Enthalpies=            -837.230557
 Sum of electronic and thermal Free Energies=         -837.307058

                     E (Thermal)             CV                S
                      KCal/Mol        Cal/Mol-Kelvin    Cal/Mol-Kelvin
 Total                  207.790             72.405            161.012
 Electronic               0.000              0.000              0.000
 Translational            0.889              2.981             42.379
 Rotational               0.889              2.981             35.673
 Vibrational            206.012             66.443             82.960
 Vibration     1          0.593              1.987              7.968
 Vibration     2          0.593              1.985              6.257
 Vibration     3          0.594              1.984              5.767
 Vibration     4          0.594              1.981              5.323
 Vibration     5          0.596              1.976              4.686
 Vibration     6          0.596              1.976              4.646
 Vibration     7          0.600              1.962              3.851
 Vibration     8          0.602              1.956              3.650
 Vibration     9          0.603              1.951              3.517
 Vibration    10          0.605              1.945              3.356
 Vibration    11          0.611              1.925              2.980
 Vibration    12          0.615              1.911              2.779
 Vibration    13          0.620              1.898              2.615
 Vibration    14          0.623              1.887              2.510
 Vibration    15          0.635              1.849              2.194
 Vibration    16          0.648              1.807              1.937
 Vibration    17          0.661              1.767              1.749
 Vibration    18          0.662              1.765              1.739
 Vibration    19          0.671              1.737              1.629
 Vibration    20          0.675              1.726              1.587
 Vibration    21          0.703              1.644              1.334
 Vibration    22          0.725              1.581              1.178
 Vibration    23          0.755              1.499              1.014
 Vibration    24          0.768              1.465              0.953
 Vibration    25          0.794              1.398              0.849
 Vibration    26          0.847              1.270              0.681
 Vibration    27          0.867              1.224              0.629
 Vibration    28          0.904              1.142              0.546
 Vibration    29          0.918              1.114              0.520
 Vibration    30          0.952              1.044              0.460

 Optimization completed.
    -- Stationary point found.
 Normal termination of Gaussian 16 at Mon May 29 02:50:23 2023.
