 Gaussian 16, Revision A.03,
 Gaussian 16:  ES64L-G16RevA.03 25-Dec-2016

 -----------------------------
 # opt freq b3lyp/6-31g(2df,p)
 -----------------------------

 -------------------
 Title Card Required
 -------------------
 Symbolic Z-matrix:
 Charge =  0 Multiplicity = 1

 SCF Done:  E(RB3LYP) =  -709.264733406     A.U. after   13 cycles
 SCF Done:  E(RB3LYP) =  -709.285078133     A.U. after   12 cycles
 SCF Done:  E(RB3LYP) =  -709.291187270     A.U. after   11 cycles
 SCF Done:  E(RB3LYP) =  -709.294417983     A.U. after   12 cycles
 SCF Done:  E(RB3LYP) =  -709.298015815     A.U. after   12 cycles
 SCF Done:  E(RB3LYP) =  -709.299137214     A.U. after   11 cycles
 SCF Done:  E(RB3LYP) =  -709.299464874     A.U. after   11 cycles
 SCF Done:  E(RB3LYP) =  -709.299579359     A.U. after   10 cycles
 SCF Done:  E(RB3LYP) =  -709.299687332     A.U. after   11 cycles
 SCF Done:  E(RB3LYP) =  -709.300220949     A.U. after   14 cycles
 SCF Done:  E(RB3LYP) =  -709.304309281     A.U. after   12 cycles
 SCF Done:  E(RB3LYP) =  -709.304822678     A.U. after   11 cycles
 SCF Done:  E(RB3LYP) =  -709.304894387     A.U. after   11 cycles
 SCF Done:  E(RB3LYP) =  -709.304902899     A.U. after    9 cycles
 SCF Done:  E(RB3LYP) =  -709.304907126     A.U. after    9 cycles
 SCF Done:  E(RB3LYP) =  -709.304908760     A.U. after    9 cycles
 SCF Done:  E(RB3LYP) =  -709.304909033     A.U. after    7 cycles
 SCF Done:  E(RB3LYP) =  -709.304909089     A.U. after    7 cycles
 SCF Done:  E(RB3LYP) =  -709.304909121     A.U. after    6 cycles
 Optimization completed.
    -- Stationary point found.
 Normal termination of Gaussian 16 at Sun May 28 07:29:21 2023.

 ----------------------------------------------------------------------
 #N Geom=AllCheck Guess=TCheck SCRF=Check GenChk RB3LYP/6-31G(2df,p) Fr
 eq
 ----------------------------------------------------------------------

 Structure from the checkpoint file:  "OCCdCCdCCCN1CCCCCdNN1.chk"
 -------------------
 Title Card Required
 -------------------
 Charge =  0 Multiplicity = 1

                         Standard orientation:
 ---------------------------------------------------------------------
 Center     Atomic      Atomic             Coordinates (Angstroms)
 Number     Number       Type             X           Y           Z
 ---------------------------------------------------------------------
      1          8           0        7.626309   -0.298802    0.008913
      2          6           0        6.611663    0.688600    0.167830
      3          6           0        5.323702    0.136149   -0.353260
      4          6           0        4.171091    0.121773    0.326706
      5          6           0        2.911454   -0.379071   -0.191435
      6          6           0        1.759624   -0.389632    0.492408
      7          6           0        0.449065   -0.897657   -0.028232
      8          6           0       -0.622245    0.210684   -0.082548
      9          7           0       -1.893952   -0.268488   -0.626587
     10          6           0       -2.728514    0.806255   -1.164376
     11          6           0       -3.325308    1.842112   -0.193106
     12          6           0       -4.302336    1.289652    0.863555
     13          6           0       -5.296742    0.252620    0.324586
     14          6           0       -4.824277   -1.128056   -0.072388
     15          7           0       -3.699827   -1.725636   -0.041115
     16          7           0       -2.596774   -0.955547    0.487021
     17          1           0        8.474913    0.119646    0.182741
     18          1           0        6.874360    1.599809   -0.397729
     19          1           0        6.494375    0.984402    1.222418
     20          1           0        5.364003   -0.263159   -1.365329
     21          1           0        4.153493    0.512459    1.344315
     22          1           0        2.928414   -0.775416   -1.206522
     23          1           0        1.751427    0.010652    1.506944
     24          1           0        0.102418   -1.714513    0.621682
     25          1           0        0.567082   -1.321635   -1.030351
     26          1           0       -0.259520    1.000564   -0.746911
     27          1           0       -0.746234    0.655594    0.919864
     28          1           0       -3.536083    0.341485   -1.739330
     29          1           0       -2.106267    1.322813   -1.902812
     30          1           0       -3.851945    2.578399   -0.815921
     31          1           0       -2.523885    2.393642    0.312001
     32          1           0       -4.885825    2.128286    1.264872
     33          1           0       -3.749029    0.856117    1.695727
     34          1           0       -5.836444    0.660952   -0.544510
     35          1           0       -6.085324    0.083054    1.072817
     36          1           0       -5.632935   -1.760323   -0.451961
     37          1           0       -1.936659   -1.695302    0.713010
 ---------------------------------------------------------------------

 SCF Done:  E(RB3LYP) =  -709.304909121     A.U. after    1 cycles

 The electronic state is 1-A.
 Alpha  occ. eigenvalues --  -19.13124 -14.35668 -14.33959 -14.33756 -10.22962
 Alpha  occ. eigenvalues --  -10.22270 -10.20626 -10.20155 -10.19538 -10.18554
 Alpha  occ. eigenvalues --  -10.18497 -10.18444 -10.18241 -10.18045 -10.17906
 Alpha  occ. eigenvalues --  -10.17838  -1.01154  -0.99190  -0.89666  -0.81432
 Alpha  occ. eigenvalues --   -0.81100  -0.78252  -0.75663  -0.73696  -0.71263
 Alpha  occ. eigenvalues --   -0.66934  -0.63610  -0.60588  -0.58711  -0.55595
 Alpha  occ. eigenvalues --   -0.55378  -0.52226  -0.50619  -0.50338  -0.48721
 Alpha  occ. eigenvalues --   -0.47309  -0.46289  -0.46088  -0.44178  -0.43220
 Alpha  occ. eigenvalues --   -0.42372  -0.41167  -0.39934  -0.39534  -0.39348
 Alpha  occ. eigenvalues --   -0.38624  -0.36840  -0.36665  -0.35901  -0.34722
 Alpha  occ. eigenvalues --   -0.34133  -0.33846  -0.32975  -0.32586  -0.31794
 Alpha  occ. eigenvalues --   -0.31021  -0.28601  -0.26743  -0.25019  -0.21784
 Alpha  occ. eigenvalues --   -0.17771
 Alpha virt. eigenvalues --   -0.02126   0.00274   0.07249   0.07660   0.09489
 Alpha virt. eigenvalues --    0.09730   0.10462   0.11120   0.12210   0.13249
 Alpha virt. eigenvalues --    0.13416   0.13619   0.14138   0.14966   0.15221

 Mulliken charges:
               1
     1  O   -0.417159
     2  C   -0.127812
     3  C   -0.049296
     4  C   -0.050600
     5  C   -0.059516
     6  C   -0.063750
     7  C   -0.267340
     8  C   -0.121928
     9  N   -0.076731
    10  C   -0.153334
    11  C   -0.195939
    12  C   -0.186812
    13  C   -0.255699
    14  C    0.069723
    15  N   -0.162127
    16  N   -0.295773
    17  H    0.285789
    18  H    0.092302
    19  H    0.087688
    20  H    0.090629
    21  H    0.079354
    22  H    0.082578
    23  H    0.082559
    24  H    0.104300
    25  H    0.112431
    26  H    0.107049
    27  H    0.088903
    28  H    0.110019
    29  H    0.103916
    30  H    0.092191
    31  H    0.097152
    32  H    0.082281
    33  H    0.128801
    34  H    0.114695
    35  H    0.120950
    36  H    0.105276
    37  H    0.245229
 Sum of Mulliken charges =  -0.00000

 Dipole moment (field-independent basis, Debye):
    X=             -0.4010    Y=              3.1115    Z=              0.4923  Tot=              3.1757
 Quadrupole moment (field-independent basis, Debye-Ang):
   XX=            -78.9677   YY=           -101.4790   ZZ=            -96.3704
   XY=              5.5052   XZ=              2.3069   YZ=             -1.0938

  Exact polarizability: 270.902  10.192 124.640 -11.716   3.409 121.005
 Approx polarizability: 329.143  10.434 188.921 -26.354   2.646 198.368

                      1                      2                      3
                      A                      A                      A
 Frequencies --     21.0134                22.0982                38.3700
 Red. masses --      3.9675                 4.4329                 2.8386
 Frc consts  --      0.0010                 0.0013                 0.0025
 IR Inten    --      0.4265                 0.0295                 0.4536

                      4                      5                      6
                      A                      A                      A
 Frequencies --     56.7508                70.9210                98.8752
 Red. masses --      3.9719                 3.9416                 3.8903
 Frc consts  --      0.0075                 0.0117                 0.0224
 IR Inten    --      2.0573                 0.3734                 0.5007

                      7                      8                      9
                      A                      A                      A
 Frequencies --    121.2312               148.7404               176.5623
 Red. masses --      2.6459                 2.3673                 3.1608
 Frc consts  --      0.0229                 0.0309                 0.0581
 IR Inten    --      2.9631                 5.6876                 2.6740

                     10                     11                     12
                      A                      A                      A
 Frequencies --    186.9014               217.2934               242.2463
 Red. masses --      2.8856                 2.5490                 2.6803
 Frc consts  --      0.0594                 0.0709                 0.0927
 IR Inten    --      0.1734                 5.2728                 0.9925

                     13                     14                     15
                      A                      A                      A
 Frequencies --    251.5794               266.3604               300.7708
 Red. masses --      1.1505                 2.4649                 4.0187
 Frc consts  --      0.0429                 0.1030                 0.2142
 IR Inten    --     97.7218                 0.9647                 1.1101

                     16                     17                     18
                      A                      A                      A
 Frequencies --    303.8167               337.2632               364.9262
 Red. masses --      3.1973                 2.5827                 2.7670
 Frc consts  --      0.1739                 0.1731                 0.2171
 IR Inten    --      1.4534                 1.1549                 1.1891

                     19                     20                     21
                      A                      A                      A
 Frequencies --    395.2421               408.3601               433.6369
 Red. masses --      3.3136                 2.2667                 3.6030
 Frc consts  --      0.3050                 0.2227                 0.3992
 IR Inten    --      2.9856                 1.6054                12.9065

                     22                     23                     24
                      A                      A                      A
 Frequencies --    469.7014               521.9685               546.9257
 Red. masses --      2.1173                 3.1982                 2.8344
 Frc consts  --      0.2752                 0.5134                 0.4995
 IR Inten    --      3.4238                 7.9065                 4.1195

                     25                     26                     27
                      A                      A                      A
 Frequencies --    585.2293               598.8676               715.0677
 Red. masses --      3.6730                 2.3537                 2.1386
 Frc consts  --      0.7412                 0.4973                 0.6443
 IR Inten    --      4.0620                 4.6817                 5.9946

                     28                     29                     30
                      A                      A                      A
 Frequencies --    739.2407               775.9664               793.0007
 Red. masses --      2.4686                 1.3690                 2.5659
 Frc consts  --      0.7948                 0.4857                 0.9507
 IR Inten    --      3.0750                 6.5303                 4.0458

                     31                     32                     33
                      A                      A                      A
 Frequencies --    811.7711               830.8529               852.7600
 Red. masses --      1.6989                 2.1835                 2.7054
 Frc consts  --      0.6596                 0.8881                 1.1591
 IR Inten    --      1.2838                 5.8093                 0.9907

                     34                     35                     36
                      A                      A                      A
 Frequencies --    874.0019               891.3422               924.6386
 Red. masses --      1.9180                 1.9495                 4.6898
 Frc consts  --      0.8632                 0.9126                 2.3624
 IR Inten    --      5.8328                 0.0910                16.3178

                     37                     38                     39
                      A                      A                      A
 Frequencies --    955.2829               964.5025               976.0243
 Red. masses --      2.1322                 1.8251                 1.7672
 Frc consts  --      1.1464                 1.0003                 0.9919
 IR Inten    --      7.5880                 6.4777                 0.6842

                     40                     41                     42
                      A                      A                      A
 Frequencies --    988.3545               997.1590              1011.4067
 Red. masses --      1.1566                 2.0334                 1.9486
 Frc consts  --      0.6657                 1.1913                 1.1744
 IR Inten    --      1.5513                 6.0616                21.9429

                     43                     44                     45
                      A                      A                      A
 Frequencies --   1032.5731              1043.1564              1051.4311
 Red. masses --      3.1245                 1.3445                 2.6755
 Frc consts  --      1.9628                 0.8620                 1.7427
 IR Inten    --      2.8469                89.1646                15.2221

                     46                     47                     48
                      A                      A                      A
 Frequencies --   1071.7641              1081.9223              1094.2378
 Red. masses --      2.1578                 2.4618                 2.0718
 Frc consts  --      1.4604                 1.6978                 1.4616
 IR Inten    --     27.1612                65.7562                13.2000

                     49                     50                     51
                      A                      A                      A
 Frequencies --   1105.8997              1113.6668              1126.0506
 Red. masses --      2.7002                 2.7877                 1.9287
 Frc consts  --      1.9457                 2.0370                 1.4409
 IR Inten    --      3.0651                27.6303                 7.5130

                     52                     53                     54
                      A                      A                      A
 Frequencies --   1175.6101              1192.5703              1203.7772
 Red. masses --      1.7083                 1.5359                 1.3017
 Frc consts  --      1.3910                 1.2870                 1.1113
 IR Inten    --      3.6622                 3.0435                10.1474

                     55                     56                     57
                      A                      A                      A
 Frequencies --   1229.7029              1237.2876              1251.6710
 Red. masses --      1.1773                 1.2019                 1.3541
 Frc consts  --      1.0489                 1.0841                 1.2499
 IR Inten    --     34.7846                40.2981                 5.9828

                     58                     59                     60
                      A                      A                      A
 Frequencies --   1259.3376              1289.6215              1294.8286
 Red. masses --      1.3463                 1.1991                 1.2422
 Frc consts  --      1.2580                 1.1749                 1.2271
 IR Inten    --     19.7639                13.2168                 4.2423

                     61                     62                     63
                      A                      A                      A
 Frequencies --   1304.8525              1321.9932              1324.1904
 Red. masses --      1.3430                 1.4187                 1.2696
 Frc consts  --      1.3472                 1.4608                 1.3117
 IR Inten    --     19.7786                 2.4394                 7.4221

                     64                     65                     66
                      A                      A                      A
 Frequencies --   1331.3218              1340.1080              1366.1480
 Red. masses --      1.2645                 1.1973                 1.3405
 Frc consts  --      1.3204                 1.2669                 1.4740
 IR Inten    --      6.5528                 0.6775                 6.0479

                     67                     68                     69
                      A                      A                      A
 Frequencies --   1374.3927              1378.7704              1388.2383
 Red. masses --      1.3297                 1.4337                 1.2970
 Frc consts  --      1.4799                 1.6058                 1.4727
 IR Inten    --      8.4726                 1.4254                 2.2122

                     70                     71                     72
                      A                      A                      A
 Frequencies --   1396.1374              1406.9513              1413.7836
 Red. masses --      1.3152                 1.3045                 1.3508
 Frc consts  --      1.5105                 1.5215                 1.5907
 IR Inten    --     33.0448                 0.9527                 8.2245

                     73                     74                     75
                      A                      A                      A
 Frequencies --   1453.2222              1453.9120              1468.6050
 Red. masses --      1.4407                 1.1001                 1.0876
 Frc consts  --      1.7926                 1.3701                 1.3821
 IR Inten    --     52.6163                 9.7385                 1.3866

                     76                     77                     78
                      A                      A                      A
 Frequencies --   1478.2070              1485.5574              1491.5775
 Red. masses --      1.0799                 1.0938                 1.0954
 Frc consts  --      1.3902                 1.4223                 1.4359
 IR Inten    --      1.1411                 6.9299                 6.4556

                     79                     80                     81
                      A                      A                      A
 Frequencies --   1498.6908              1507.5759              1510.4311
 Red. masses --      1.0834                 1.0871                 1.1704
 Frc consts  --      1.4337                 1.4557                 1.5732
 IR Inten    --      8.9854                 0.5150                27.5581

                     82                     83                     84
                      A                      A                      A
 Frequencies --   1696.1807              1729.3240              1735.2885
 Red. masses --      6.2408                 5.8844                 6.4230
 Frc consts  --     10.5788                10.3682                11.3954
 IR Inten    --      0.3167                 6.1864                55.3890

                     85                     86                     87
                      A                      A                      A
 Frequencies --   2944.0049              2952.8965              2986.8172
 Red. masses --      1.0633                 1.0694                 1.0955
 Frc consts  --      5.4299                 5.4942                 5.7583
 IR Inten    --     66.0743                39.3688                48.9101

                     88                     89                     90
                      A                      A                      A
 Frequencies --   2990.0731              2997.3243              3008.6575
 Red. masses --      1.0642                 1.0679                 1.0691
 Frc consts  --      5.6059                 5.6528                 5.7017
 IR Inten    --     18.0858                37.8820                10.0718

                     91                     92                     93
                      A                      A                      A
 Frequencies --   3015.4326              3027.3010              3045.2358
 Red. masses --      1.0884                 1.0749                 1.0670
 Frc consts  --      5.8307                 5.8041                 5.8296
 IR Inten    --     26.5672                74.1728                13.2082

                     94                     95                     96
                      A                      A                      A
 Frequencies --   3057.9234              3071.8056              3080.6066
 Red. masses --      1.0908                 1.0883                 1.0992
 Frc consts  --      6.0094                 6.0505                 6.1460
 IR Inten    --     27.3960                 8.0287                49.2396

                     97                     98                     99
                      A                      A                      A
 Frequencies --   3083.2117              3087.7674              3121.1690
 Red. masses --      1.0872                 1.0954                 1.0890
 Frc consts  --      6.0892                 6.1534                 6.2504
 IR Inten    --     30.6583                31.9212                 9.8006

                    100                    101                    102
                      A                      A                      A
 Frequencies --   3124.9684              3134.6415              3135.0650
 Red. masses --      1.0875                 1.0881                 1.0903
 Frc consts  --      6.2572                 6.2994                 6.3136
 IR Inten    --      2.3355                29.7416                14.3941

                    103                    104                    105
                      A                      A                      A
 Frequencies --   3148.0068              3481.1473              3822.5259
 Red. masses --      1.0874                 1.0749                 1.0663
 Frc consts  --      6.3489                 7.6750                 9.1796
 IR Inten    --     24.6796                 2.0282                13.2712

 - Thermochemistry -
 -------------------
 Temperature   298.150 Kelvin.  Pressure   1.00000 Atm.
 Atom     1 has atomic number  8 and mass  15.99491

 Molecular mass:   223.16846 amu.
 Principal axes and moments of inertia in atomic units:
                           1         2         3
     Eigenvalues --   951.20793********************
           X            1.00000  -0.00258   0.00019
           Y            0.00257   0.99991   0.01346
           Z           -0.00023  -0.01346   0.99991
 This molecule is an asymmetric top.
 Rotational symmetry number  1.
 Warning -- assumption of classical behavior for rotation
           may cause significant error
 Rotational temperatures (Kelvin)      0.09106     0.00603     0.00585
 Rotational constants (GHZ):           1.89732     0.12571     0.12179
 Zero-point vibrational energy     851227.8 (Joules/Mol)
                                  203.44832 (Kcal/Mol)
 Warning -- explicit consideration of  26 degrees of freedom as
           vibrations may cause significant error
 Vibrational temperatures:     30.23    31.79    55.21    81.65   102.04
          (Kelvin)            142.26   174.42   214.00   254.03   268.91
                              312.64   348.54   361.97   383.23   432.74
                              437.12   485.25   525.05   568.67   587.54
                              623.91   675.80   751.00   786.90   842.01
                              861.64  1028.82  1063.60  1116.44  1140.95
                             1167.96  1195.41  1226.93  1257.49  1282.44
                             1330.35  1374.44  1387.70  1404.28  1422.02
                             1434.69  1455.19  1485.64  1500.87  1512.77
                             1542.03  1556.64  1574.36  1591.14  1602.32
                             1620.14  1691.44  1715.84  1731.97  1769.27
                             1780.18  1800.88  1811.91  1855.48  1862.97
                             1877.39  1902.05  1905.21  1915.48  1928.12
                             1965.58  1977.44  1983.74  1997.37  2008.73
                             2024.29  2034.12  2090.86  2091.86  2112.99
                             2126.81  2137.39  2146.05  2156.28  2169.07
                             2173.17  2440.43  2488.11  2496.69  4235.77
                             4248.56  4297.36  4302.05  4312.48  4328.79
                             4338.53  4355.61  4381.42  4399.67  4419.64
                             4432.31  4436.05  4442.61  4490.67  4496.13
                             4510.05  4510.66  4529.28  5008.59  5499.76

 Zero-point correction=                           0.324216 (Hartree/Particle)
 Thermal correction to Energy=                    0.341491
 Thermal correction to Enthalpy=                  0.342435
 Thermal correction to Gibbs Free Energy=         0.276689
 Sum of electronic and zero-point Energies=           -708.980694
 Sum of electronic and thermal Energies=              -708.963419
 Sum of electronic and thermal Enthalpies=            -708.962474
 Sum of electronic and thermal Free Energies=         -709.028220

                     E (Thermal)             CV                S
                      KCal/Mol        Cal/Mol-Kelvin    Cal/Mol-Kelvin
 Total                  214.289             64.255            138.373
 Electronic               0.000              0.000              0.000
 Translational            0.889              2.981             42.111
 Rotational               0.889              2.981             33.670
 Vibrational            212.511             58.293             62.593
 Vibration     1          0.593              1.986              6.536
 Vibration     2          0.593              1.985              6.436
 Vibration     3          0.594              1.982              5.342
 Vibration     4          0.596              1.975              4.567
 Vibration     5          0.598              1.968              4.128
 Vibration     6          0.604              1.950              3.476
 Vibration     7          0.609              1.931              3.081
 Vibration     8          0.618              1.904              2.688
 Vibration     9          0.628              1.871              2.364
 Vibration    10          0.632              1.858              2.258
 Vibration    11          0.646              1.815              1.982
 Vibration    12          0.658              1.776              1.786
 Vibration    13          0.664              1.760              1.719
 Vibration    14          0.672              1.735              1.620
 Vibration    15          0.693              1.672              1.413
 Vibration    16          0.695              1.666              1.396
 Vibration    17          0.718              1.601              1.225
 Vibration    18          0.738              1.544              1.101
 Vibration    19          0.762              1.480              0.980
 Vibration    20          0.773              1.452              0.932
 Vibration    21          0.794              1.397              0.847
 Vibration    22          0.827              1.317              0.738
 Vibration    23          0.877              1.201              0.605
 Vibration    24          0.902              1.146              0.551
 Vibration    25          0.942              1.063              0.476
 Vibration    26          0.957              1.034              0.452

                           ! Non-Optimized Parameters !
 Normal termination of Gaussian 16 at Sun May 28 10:15:38 2023.
