 Gaussian 16, Revision A.03,
 Gaussian 16:  ES64L-G16RevA.03 25-Dec-2016

 -----------------------------
 # opt freq b3lyp/6-31g(2df,p)
 -----------------------------

 -------------------
 Title Card Required
 -------------------
 Symbolic Z-matrix:
 Charge =  0 Multiplicity = 1

 SCF Done:  E(RB3LYP) =  -648.832198676     A.U. after   17 cycles
 SCF Done:  E(RB3LYP) =  -648.892136815     A.U. after   15 cycles
 SCF Done:  E(RB3LYP) =  -648.951228960     A.U. after   15 cycles
 SCF Done:  E(RB3LYP) =  -648.963903362     A.U. after   14 cycles
 SCF Done:  E(RB3LYP) =  -648.971132247     A.U. after   14 cycles
 SCF Done:  E(RB3LYP) =  -648.972592183     A.U. after   13 cycles
 SCF Done:  E(RB3LYP) =  -648.972928026     A.U. after   13 cycles
 SCF Done:  E(RB3LYP) =  -648.973030235     A.U. after   11 cycles
 SCF Done:  E(RB3LYP) =  -648.973032937     A.U. after    7 cycles
 SCF Done:  E(RB3LYP) =  -648.973035567     A.U. after    7 cycles
 SCF Done:  E(RB3LYP) =  -648.994208193     A.U. after   12 cycles
 SCF Done:  E(RB3LYP) =  -648.994257605     A.U. after   11 cycles
 SCF Done:  E(RB3LYP) =  -648.994272019     A.U. after    9 cycles
 SCF Done:  E(RB3LYP) =  -648.994275154     A.U. after   10 cycles
 SCF Done:  E(RB3LYP) =  -648.994281637     A.U. after   10 cycles
 SCF Done:  E(RB3LYP) =  -648.994285137     A.U. after   10 cycles
 SCF Done:  E(RB3LYP) =  -648.994286964     A.U. after   10 cycles
 SCF Done:  E(RB3LYP) =  -648.994287883     A.U. after   10 cycles
 SCF Done:  E(RB3LYP) =  -648.994288097     A.U. after    9 cycles
 Optimization completed.
    -- Stationary point found.
 Normal termination of Gaussian 16 at Sun May 28 17:04:10 2023.

 ----------------------------------------------------------------------
 #N Geom=AllCheck Guess=TCheck SCRF=Check GenChk RB3LYP/6-31G(2df,p) Fr
 eq
 ----------------------------------------------------------------------

 Structure from the checkpoint file:  "OCCdCC1dCNdCC2dCC2dCCdCN1.chk"
 -------------------
 Title Card Required
 -------------------
 Charge =  0 Multiplicity = 1

                         Standard orientation:
 ---------------------------------------------------------------------
 Center     Atomic      Atomic             Coordinates (Angstroms)
 Number     Number       Type             X           Y           Z
 ---------------------------------------------------------------------
      1          8           0        5.440811    0.158642    0.766913
      2          6           0        4.672419   -0.320370   -0.328060
      3          6           0        3.254151    0.115213   -0.129575
      4          6           0        2.194555   -0.690153   -0.261741
      5          6           0        0.773685   -0.324891   -0.129585
      6          6           0       -0.095630   -1.408356    0.052847
      7          7           0       -1.405741   -1.228430    0.009307
      8          6           0       -2.495314   -1.913849    0.052764
      9          6           0       -3.608639   -0.976221    0.076197
     10          6           0       -4.511599   -0.135376    0.617492
     11          6           0       -3.511435    0.419990   -0.213903
     12          6           0       -2.533927    1.175631   -0.780506
     13          6           0       -1.778329    2.091376    0.034380
     14          6           0       -0.457329    1.948891    0.291013
     15          7           0        0.497550    1.010162   -0.246558
     16          1           0        6.370653    0.023863    0.560746
     17          1           0        4.721847   -1.416744   -0.417601
     18          1           0        5.046970    0.099858   -1.277970
     19          1           0        3.145877    1.163135    0.144709
     20          1           0        2.370533   -1.741738   -0.472999
     21          1           0        0.369709   -2.390815    0.183559
     22          1           0       -2.602207   -2.999834    0.129101
     23          1           0       -5.206053   -0.006937    1.435724
     24          1           0       -1.886787    0.574510   -1.413175
     25          1           0       -2.280790    2.866593    0.611234
     26          1           0        0.042748    2.691276    0.907057
     27          1           0        1.322687    1.504261   -0.552863
 ---------------------------------------------------------------------

 SCF Done:  E(RB3LYP) =  -648.994288097     A.U. after    1 cycles

 The electronic state is 1-A.
 Alpha  occ. eigenvalues --  -19.14563 -14.36470 -14.32203 -10.24594 -10.24565
 Alpha  occ. eigenvalues --  -10.22521 -10.21930 -10.21777 -10.20556 -10.20513
 Alpha  occ. eigenvalues --  -10.20329 -10.20245 -10.18837 -10.17459 -10.13405
 Alpha  occ. eigenvalues --   -1.02711  -0.94871  -0.92785  -0.89374  -0.81356
 Alpha  occ. eigenvalues --   -0.77199  -0.75713  -0.70826  -0.67713  -0.64781
 Alpha  occ. eigenvalues --   -0.59501  -0.57508  -0.55644  -0.53911  -0.53430
 Alpha  occ. eigenvalues --   -0.51223  -0.50235  -0.48848  -0.47360  -0.45379
 Alpha  occ. eigenvalues --   -0.44275  -0.43970  -0.42128  -0.40304  -0.39524
 Alpha  occ. eigenvalues --   -0.38243  -0.36845  -0.36616  -0.34787  -0.34294
 Alpha  occ. eigenvalues --   -0.33667  -0.29728  -0.28578  -0.27609  -0.25394
 Alpha  occ. eigenvalues --   -0.22516  -0.19984  -0.14784
 Alpha virt. eigenvalues --   -0.07131  -0.00791   0.01790   0.05037   0.05895
 Alpha virt. eigenvalues --    0.07730   0.08359   0.10344   0.10439   0.12595
 Alpha virt. eigenvalues --    0.13227   0.14161   0.14844   0.15917   0.16372

 Mulliken charges:
               1
     1  O   -0.414879
     2  C   -0.128967
     3  C   -0.079878
     4  C   -0.077822
     5  C    0.317448
     6  C   -0.121010
     7  N   -0.112045
     8  C   -0.195130
     9  C    0.205987
    10  C   -0.364903
    11  C    0.332977
    12  C   -0.371701
    13  C   -0.048841
    14  C   -0.080978
    15  N   -0.372724
    16  H    0.291227
    17  H    0.096935
    18  H    0.102296
    19  H    0.102878
    20  H    0.102872
    21  H    0.074894
    22  H    0.097004
    23  H    0.146696
    24  H    0.080304
    25  H    0.084229
    26  H    0.089771
    27  H    0.243359
 Sum of Mulliken charges =  -0.00000

 Dipole moment (field-independent basis, Debye):
    X=              3.2638    Y=             -1.5458    Z=              0.0005  Tot=              3.6113
 Quadrupole moment (field-independent basis, Debye-Ang):
   XX=            -66.2316   YY=            -82.5122   ZZ=            -90.0474
   XY=              2.3782   XZ=            -12.6657   YZ=              2.1596

  Exact polarizability: 302.355  24.393 153.396 -15.427   1.179  82.370
 Approx polarizability: 521.816  95.506 281.658 -29.505  -6.172 142.538

                      1                      2                      3
                      A                      A                      A
 Frequencies --     36.1828                54.3597                96.3298
 Red. masses --      5.4075                 5.0940                 3.1433
 Frc consts  --      0.0042                 0.0089                 0.0172
 IR Inten    --      1.3073                 4.2396                 0.5221

                      4                      5                      6
                      A                      A                      A
 Frequencies --    111.2879               124.2064               137.2279
 Red. masses --      3.2159                 2.8555                 4.1186
 Frc consts  --      0.0235                 0.0260                 0.0457
 IR Inten    --      1.9042                 9.1178                 1.3853

                      7                      8                      9
                      A                      A                      A
 Frequencies --    147.6278               193.4198               230.9313
 Red. masses --      3.9744                 3.6676                 3.6283
 Frc consts  --      0.0510                 0.0808                 0.1140
 IR Inten    --      4.3773                 1.3356                 3.9319

                     10                     11                     12
                      A                      A                      A
 Frequencies --    249.4458               272.8698               288.4090
 Red. masses --      1.1327                 2.9848                 4.9966
 Frc consts  --      0.0415                 0.1309                 0.2449
 IR Inten    --     98.8500                43.6878                 1.6246

                     13                     14                     15
                      A                      A                      A
 Frequencies --    316.2196               369.5291               380.3829
 Red. masses --      4.7925                 3.7049                 3.3484
 Frc consts  --      0.2824                 0.2981                 0.2854
 IR Inten    --      5.6336                15.3488                 6.4353

                     16                     17                     18
                      A                      A                      A
 Frequencies --    406.4656               447.5243               460.6127
 Red. masses --      3.9109                 4.0767                 3.6714
 Frc consts  --      0.3807                 0.4811                 0.4589
 IR Inten    --      1.9775                 3.4555                 6.9060

                     19                     20                     21
                      A                      A                      A
 Frequencies --    507.1492               572.3106               609.2935
 Red. masses --      3.6061                 3.6284                 5.5283
 Frc consts  --      0.5465                 0.7002                 1.2092
 IR Inten    --     12.3483                 8.2047                24.2234

                     22                     23                     24
                      A                      A                      A
 Frequencies --    613.3359               656.8607               682.0953
 Red. masses --      1.7099                 1.9215                 2.1571
 Frc consts  --      0.3790                 0.4885                 0.5913
 IR Inten    --     57.5319                32.2682                19.0963

                     25                     26                     27
                      A                      A                      A
 Frequencies --    693.3493               709.0245               756.8897
 Red. masses --      1.9656                 3.1482                 3.3991
 Frc consts  --      0.5567                 0.9325                 1.1473
 IR Inten    --     57.5822                 4.3480                11.6889

                     28                     29                     30
                      A                      A                      A
 Frequencies --    808.9885               832.2841               840.8791
 Red. masses --      1.3028                 2.2294                 2.5284
 Frc consts  --      0.5023                 0.9099                 1.0533
 IR Inten    --      8.8959                 6.4236                15.6076

                     31                     32                     33
                      A                      A                      A
 Frequencies --    856.7213               873.1971               888.8356
 Red. masses --      1.9060                 2.1316                 1.9545
 Frc consts  --      0.8242                 0.9576                 0.9097
 IR Inten    --     43.0307                20.1129                30.8404

                     34                     35                     36
                      A                      A                      A
 Frequencies --    938.3581               962.0602               974.6568
 Red. masses --      2.6272                 1.5382                 1.8081
 Frc consts  --      1.3630                 0.8388                 1.0120
 IR Inten    --     16.1131                13.7493                 8.5054

                     37                     38                     39
                      A                      A                      A
 Frequencies --   1014.6398              1024.4761              1041.3410
 Red. masses --      1.2221                 4.6316                 3.2887
 Frc consts  --      0.7413                 2.8641                 2.1012
 IR Inten    --     33.9754                46.3754                17.0724

                     40                     41                     42
                      A                      A                      A
 Frequencies --   1066.4503              1078.9922              1109.9276
 Red. masses --      2.5813                 2.3117                 2.3366
 Frc consts  --      1.7297                 1.5857                 1.6960
 IR Inten    --     56.9462                36.1074                31.7090

                     43                     44                     45
                      A                      A                      A
 Frequencies --   1152.0889              1192.6323              1227.2104
 Red. masses --      3.6901                 2.7933                 1.7924
 Frc consts  --      2.8857                 2.3409                 1.5905
 IR Inten    --     16.3864                24.9063                58.4462

                     46                     47                     48
                      A                      A                      A
 Frequencies --   1230.7924              1247.6287              1271.3968
 Red. masses --      1.0924                 1.2433                 1.2640
 Frc consts  --      0.9750                 1.1402                 1.2039
 IR Inten    --     50.8354                35.7715                13.1525

                     49                     50                     51
                      A                      A                      A
 Frequencies --   1309.3100              1323.1444              1336.1587
 Red. masses --      1.2249                 1.3136                 1.5205
 Frc consts  --      1.2371                 1.3550                 1.5994
 IR Inten    --      8.8935                13.9521                16.4077

                     52                     53                     54
                      A                      A                      A
 Frequencies --   1364.3978              1419.8793              1443.4860
 Red. masses --      1.3341                 1.7018                 1.5332
 Frc consts  --      1.4632                 2.0215                 1.8822
 IR Inten    --     18.8707                60.8837                21.8714

                     55                     56                     57
                      A                      A                      A
 Frequencies --   1453.4904              1465.9166              1505.1341
 Red. masses --      1.4756                 2.9213                 1.0838
 Frc consts  --      1.8367                 3.6986                 1.4466
 IR Inten    --     31.2300               184.1506                 0.5491

                     58                     59                     60
                      A                      A                      A
 Frequencies --   1546.0387              1590.2752              1632.5748
 Red. masses --      2.1406                 4.3865                 5.5897
 Frc consts  --      3.0145                 6.5361                 8.7778
 IR Inten    --     93.8148                88.3079                63.8308

                     61                     62                     63
                      A                      A                      A
 Frequencies --   1647.3902              1710.6057              1780.2374
 Red. masses --      4.4023                 6.0687                 8.6309
 Frc consts  --      7.0391                10.4627                16.1161
 IR Inten    --    215.0220                 6.4437               180.2138

                     64                     65                     66
                      A                      A                      A
 Frequencies --   2946.5332              2992.6256              3043.3732
 Red. masses --      1.0642                 1.0946                 1.0852
 Frc consts  --      5.4436                 5.7756                 5.9223
 IR Inten    --     56.8984                41.1143                33.0930

                     67                     68                     69
                      A                      A                      A
 Frequencies --   3056.2555              3127.5285              3137.6951
 Red. masses --      1.0860                 1.0820                 1.0827
 Frc consts  --      5.9766                 6.2354                 6.2801
 IR Inten    --     87.2329                 4.1298                 9.6424

                     70                     71                     72
                      A                      A                      A
 Frequencies --   3144.2687              3157.2474              3162.8936
 Red. masses --      1.0889                 1.0922                 1.0873
 Frc consts  --      6.3428                 6.4148                 6.4084
 IR Inten    --      9.4675                36.3619                18.7042

                     73                     74                     75
                      A                      A                      A
 Frequencies --   3216.5629              3590.5087              3827.2875
 Red. masses --      1.1081                 1.0731                 1.0664
 Frc consts  --      6.7548                 8.1511                 9.2031
 IR Inten    --      2.0077                37.5297                24.6076

 - Thermochemistry -
 -------------------
 Temperature   298.150 Kelvin.  Pressure   1.00000 Atm.
 Atom     1 has atomic number  8 and mass  15.99491

 Molecular mass:   200.09496 amu.
 Principal axes and moments of inertia in atomic units:
                           1         2         3
     Eigenvalues --  1121.913036723.522287600.53433
           X            0.99997  -0.00309  -0.00696
           Y            0.00318   0.99991   0.01301
           Z            0.00692  -0.01303   0.99989
 This molecule is an asymmetric top.
 Rotational symmetry number  1.
 Warning -- assumption of classical behavior for rotation
           may cause significant error
 Rotational temperatures (Kelvin)      0.07720     0.01288     0.01140
 Rotational constants (GHZ):           1.60863     0.26842     0.23745
 Zero-point vibrational energy     554395.7 (Joules/Mol)
                                  132.50374 (Kcal/Mol)
 Warning -- explicit consideration of  22 degrees of freedom as
           vibrations may cause significant error
 Vibrational temperatures:     52.06    78.21   138.60   160.12   178.71
          (Kelvin)            197.44   212.40   278.29   332.26   358.90
                              392.60   414.96   454.97   531.67   547.29
                              584.81   643.89   662.72   729.67   823.43
                              876.64   882.45   945.08   981.38   997.57
                             1020.13  1089.00  1163.95  1197.47  1209.84
                             1232.63  1256.34  1278.84  1350.09  1384.19
                             1402.31  1459.84  1473.99  1498.26  1534.38
                             1552.43  1596.94  1657.60  1715.93  1765.68
                             1770.84  1795.06  1829.26  1883.81  1903.71
                             1922.43  1963.06  2042.89  2076.85  2091.25
                             2109.13  2165.55  2224.40  2288.05  2348.91
                             2370.23  2461.18  2561.36  4239.40  4305.72
                             4378.74  4397.27  4499.82  4514.44  4523.90
                             4542.57  4550.70  4627.92  5165.94  5506.61

 Zero-point correction=                           0.211158 (Hartree/Particle)
 Thermal correction to Energy=                    0.225644
 Thermal correction to Enthalpy=                  0.226588
 Thermal correction to Gibbs Free Energy=         0.169442
 Sum of electronic and zero-point Energies=           -648.783130
 Sum of electronic and thermal Energies=              -648.768644
 Sum of electronic and thermal Enthalpies=            -648.767700
 Sum of electronic and thermal Free Energies=         -648.824846

                     E (Thermal)             CV                S
                      KCal/Mol        Cal/Mol-Kelvin    Cal/Mol-Kelvin
 Total                  141.594             54.772            120.275
 Electronic               0.000              0.000              0.000
 Translational            0.889              2.981             41.786
 Rotational               0.889              2.981             32.417
 Vibrational            139.816             48.811             46.073
 Vibration     1          0.594              1.982              5.458
 Vibration     2          0.596              1.976              4.652
 Vibration     3          0.603              1.952              3.527
 Vibration     4          0.607              1.940              3.246
 Vibration     5          0.610              1.929              3.034
 Vibration     6          0.614              1.916              2.842
 Vibration     7          0.617              1.905              2.703
 Vibration     8          0.635              1.849              2.195
 Vibration     9          0.653              1.794              1.872
 Vibration    10          0.662              1.764              1.734
 Vibration    11          0.676              1.723              1.578
 Vibration    12          0.685              1.695              1.483
 Vibration    13          0.703              1.643              1.330
 Vibration    14          0.742              1.535              1.082
 Vibration    15          0.750              1.512              1.038
 Vibration    16          0.771              1.456              0.939
 Vibration    17          0.807              1.366              0.803
 Vibration    18          0.818              1.337              0.764
 Vibration    19          0.862              1.234              0.640
 Vibration    20          0.929              1.091              0.500
 Vibration    21          0.968              1.012              0.434
 Vibration    22          0.973              1.004              0.427

                           ! Non-Optimized Parameters !
 Normal termination of Gaussian 16 at Sun May 28 18:41:45 2023.
