 Gaussian 16, Revision A.03,
 Gaussian 16:  ES64L-G16RevA.03 25-Dec-2016

 -----------------------------
 # opt freq b3lyp/6-31g(2df,p)
 -----------------------------

 -------------------
 Title Card Required
 -------------------
 Symbolic Z-matrix:
 Charge =  0 Multiplicity = 1

 SCF Done:  E(RB3LYP) =  -974.191772524     A.U. after   24 cycles
 SCF Done:  E(RB3LYP) =  -974.288329612     A.U. after   16 cycles
 SCF Done:  E(RB3LYP) =  -974.398383371     A.U. after   16 cycles
 SCF Done:  E(RB3LYP) =  -974.506869087     A.U. after   15 cycles
 SCF Done:  E(RB3LYP) =  -974.619439373     A.U. after   14 cycles
 SCF Done:  E(RB3LYP) =  -974.651740849     A.U. after   13 cycles
 SCF Done:  E(RB3LYP) =  -974.665785947     A.U. after   12 cycles
 SCF Done:  E(RB3LYP) =  -974.674705120     A.U. after   14 cycles
 SCF Done:  E(RB3LYP) =  -974.678658223     A.U. after   12 cycles
 SCF Done:  E(RB3LYP) =  -974.680227830     A.U. after   13 cycles
 SCF Done:  E(RB3LYP) =  -974.683870765     A.U. after   11 cycles
 SCF Done:  E(RB3LYP) =  -974.684037235     A.U. after   11 cycles
 SCF Done:  E(RB3LYP) =  -974.684039597     A.U. after   11 cycles
 SCF Done:  E(RB3LYP) =  -974.684026976     A.U. after   11 cycles
 SCF Done:  E(RB3LYP) =  -974.684069495     A.U. after   11 cycles
 SCF Done:  E(RB3LYP) =  -974.684069818     A.U. after    9 cycles
 SCF Done:  E(RB3LYP) =  -974.684074860     A.U. after    9 cycles
 SCF Done:  E(RB3LYP) =  -974.684074974     A.U. after    8 cycles
 SCF Done:  E(RB3LYP) =  -974.684075133     A.U. after    7 cycles
 Optimization completed.
    -- Stationary point found.
 Normal termination of Gaussian 16 at Mon May 22 20:52:26 2023.

 ----------------------------------------------------------------------
 #N Geom=AllCheck Guess=TCheck SCRF=Check GenChk RB3LYP/6-31G(2df,p) Fr
 eq
 ----------------------------------------------------------------------

 Structure from the checkpoint file:  "OCCNSC1CCdCCdCNCC1.chk"
 -------------------
 Title Card Required
 -------------------
 Charge =  0 Multiplicity = 1

                         Standard orientation:
 ---------------------------------------------------------------------
 Center     Atomic      Atomic             Coordinates (Angstroms)
 Number     Number       Type             X           Y           Z
 ---------------------------------------------------------------------
      1          8           0       -4.978571    1.126340   -1.240677
      2          6           0       -3.945927    1.151472   -0.270744
      3          6           0       -3.282016   -0.222604   -0.281574
      4          7           0       -2.244051   -0.276715    0.749131
      5         16           0       -1.151059   -1.591423    0.704774
      6          6           0        0.449832   -0.758822    0.250180
      7          6           0        1.427042   -1.963662   -0.076634
      8          6           0        2.159252   -1.488283   -1.306261
      9          6           0        3.286479   -0.755531   -1.153230
     10          6           0        3.110073    0.659782   -1.417930
     11          6           0        3.457468    1.473846   -0.396234
     12          7           0        2.402253    2.174533    0.269883
     13          6           0        1.985493    1.287322    1.409408
     14          6           0        0.755208    0.329223    1.317710
     15          1           0       -5.377603    1.999909   -1.279526
     16          1           0       -4.345862    1.361054    0.736525
     17          1           0       -3.190010    1.920333   -0.488753
     18          1           0       -2.808396   -0.387780   -1.252804
     19          1           0       -4.058320   -0.993084   -0.163151
     20          1           0       -2.628946   -0.174697    1.680183
     21          1           0        0.237817   -0.248342   -0.692454
     22          1           0        0.829071   -2.868665   -0.240494
     23          1           0        2.104983   -2.154558    0.760290
     24          1           0        1.487339   -1.212800   -2.119610
     25          1           0        3.974265   -1.007118   -0.348353
     26          1           0        2.241610    0.938022   -2.008274
     27          1           0        4.334071    1.223325    0.212789
     28          1           0        2.728845    3.043480    0.682613
     29          1           0        1.728494    1.957381    2.239111
     30          1           0        2.853557    0.703473    1.754155
     31          1           0       -0.140752    0.958905    1.298034
     32          1           0        0.750508   -0.167967    2.297506
 ---------------------------------------------------------------------

 SCF Done:  E(RB3LYP) =  -974.684075133     A.U. after    1 cycles

 The electronic state is 1-A.
 Alpha  occ. eigenvalues --  -88.88203 -19.13833 -14.34293 -14.32446 -10.23096
 Alpha  occ. eigenvalues --  -10.21504 -10.21496 -10.20957 -10.19738 -10.19715
 Alpha  occ. eigenvalues --  -10.19323 -10.18914 -10.18446 -10.18004  -7.94116
 Alpha  occ. eigenvalues --   -5.90705  -5.90270  -5.89597  -1.02006  -0.91181
 Alpha  occ. eigenvalues --   -0.90694  -0.82561  -0.79626  -0.74447  -0.72749
 Alpha  occ. eigenvalues --   -0.70847  -0.65185  -0.61709  -0.60771  -0.56742
 Alpha  occ. eigenvalues --   -0.56113  -0.54893  -0.51896  -0.49281  -0.48794
 Alpha  occ. eigenvalues --   -0.46851  -0.45618  -0.44622  -0.43968  -0.42853
 Alpha  occ. eigenvalues --   -0.41833  -0.40722  -0.39947  -0.38670  -0.37836
 Alpha  occ. eigenvalues --   -0.36980  -0.36341  -0.35438  -0.33840  -0.33497
 Alpha  occ. eigenvalues --   -0.32848  -0.31786  -0.29085  -0.27180  -0.23943
 Alpha  occ. eigenvalues --   -0.23477  -0.22125  -0.18466
 Alpha virt. eigenvalues --   -0.02155   0.00019   0.02831   0.05982   0.07459
 Alpha virt. eigenvalues --    0.07986   0.09424   0.10462   0.11767   0.13129
 Alpha virt. eigenvalues --    0.13862   0.14280   0.14976   0.15320   0.15719

 Mulliken charges:
               1
     1  O   -0.415601
     2  C   -0.078319
     3  C   -0.114001
     4  N   -0.304333
     5  S   -0.137788
     6  C    0.032851
     7  C   -0.270551
     8  C   -0.106659
     9  C   -0.082475
    10  C   -0.063085
    11  C   -0.098418
    12  N   -0.308515
    13  C   -0.168423
    14  C   -0.182500
    15  H    0.290032
    16  H    0.079235
    17  H    0.099101
    18  H    0.128473
    19  H    0.106473
    20  H    0.242113
    21  H    0.111613
    22  H    0.124301
    23  H    0.109401
    24  H    0.096289
    25  H    0.092400
    26  H    0.103005
    27  H    0.076938
    28  H    0.221596
    29  H    0.100936
    30  H    0.088617
    31  H    0.120851
    32  H    0.106440
 Sum of Mulliken charges =  -0.00000

 Dipole moment (field-independent basis, Debye):
    X=             -0.4197    Y=              2.3636    Z=              2.2000  Tot=              3.2562
 Quadrupole moment (field-independent basis, Debye-Ang):
   XX=            -88.7703   YY=            -91.0364   ZZ=            -92.5316
   XY=             -7.1501   XZ=              1.9979   YZ=              1.7747

  Exact polarizability: 180.528  12.588 153.005   0.531   9.539 123.188
 Approx polarizability: 248.112  33.829 270.709   7.024  27.244 203.959

                      1                      2                      3
                      A                      A                      A
 Frequencies --     24.3153                33.2130                56.5044
 Red. masses --      5.6387                 4.6958                 2.1325
 Frc consts  --      0.0020                 0.0031                 0.0040
 IR Inten    --      0.1898                 0.3430                 2.4711

                      4                      5                      6
                      A                      A                      A
 Frequencies --     73.9634               124.5997               138.2835
 Red. masses --      3.5961                 4.2092                 2.9410
 Frc consts  --      0.0116                 0.0385                 0.0331
 IR Inten    --      4.9567                 1.6925                 1.5206

                      7                      8                      9
                      A                      A                      A
 Frequencies --    140.4000               178.8034               192.8215
 Red. masses --      3.2939                 2.9799                 3.5890
 Frc consts  --      0.0383                 0.0561                 0.0786
 IR Inten    --      0.9940                 0.7130                 2.6472

                     10                     11                     12
                      A                      A                      A
 Frequencies --    217.4630               239.3213               263.1496
 Red. masses --      3.7291                 1.1031                 3.9216
 Frc consts  --      0.1039                 0.0372                 0.1600
 IR Inten    --      0.8426               102.2748                 1.0246

                     13                     14                     15
                      A                      A                      A
 Frequencies --    281.2838               337.6233               367.1238
 Red. masses --      4.8546                 1.9789                 4.0086
 Frc consts  --      0.2263                 0.1329                 0.3183
 IR Inten    --      0.4666                 8.4310                 2.2686

                     16                     17                     18
                      A                      A                      A
 Frequencies --    375.1463               401.6169               419.9663
 Red. masses --      2.1092                 3.2837                 4.3630
 Frc consts  --      0.1749                 0.3121                 0.4534
 IR Inten    --      1.1011                 5.9101                17.8729

                     19                     20                     21
                      A                      A                      A
 Frequencies --    440.5461               456.8122               506.0930
 Red. masses --      4.4269                 3.0129                 2.5019
 Frc consts  --      0.5062                 0.3704                 0.3776
 IR Inten    --      3.9063                 6.9199                 7.2179

                     22                     23                     24
                      A                      A                      A
 Frequencies --    562.8815               574.2452               616.7682
 Red. masses --      2.7000                 4.0062                 1.8594
 Frc consts  --      0.5040                 0.7783                 0.4167
 IR Inten    --     17.6466                 6.2339                33.7527

                     25                     26                     27
                      A                      A                      A
 Frequencies --    718.4731               736.9495               792.4059
 Red. masses --      3.1870                 2.3782                 1.9105
 Frc consts  --      0.9693                 0.7610                 0.7068
 IR Inten    --      0.9934                 6.0387               177.3221

                     28                     29                     30
                      A                      A                      A
 Frequencies --    809.1967               814.7449               835.2279
 Red. masses --      1.3055                 2.0488                 1.4615
 Frc consts  --      0.5037                 0.8013                 0.6007
 IR Inten    --     10.0530                72.0824                51.0845

                     31                     32                     33
                      A                      A                      A
 Frequencies --    856.9942               869.4914               925.5890
 Red. masses --      1.9982                 2.0465                 2.0029
 Frc consts  --      0.8646                 0.9116                 1.0110
 IR Inten    --     12.3416                67.8095                 8.7172

                     34                     35                     36
                      A                      A                      A
 Frequencies --    944.7821               979.9682              1013.5851
 Red. masses --      2.0450                 1.5727                 2.0138
 Frc consts  --      1.0755                 0.8898                 1.2190
 IR Inten    --     43.8362                 4.5452                 2.4517

                     37                     38                     39
                      A                      A                      A
 Frequencies --   1017.5527              1021.3608              1050.4717
 Red. masses --      2.4950                 2.4872                 1.4601
 Frc consts  --      1.5221                 1.5287                 0.9493
 IR Inten    --     18.5287                32.3518                12.7750

                     40                     41                     42
                      A                      A                      A
 Frequencies --   1083.7016              1087.8475              1098.2056
 Red. masses --      5.0202                 3.3085                 3.4434
 Frc consts  --      3.4737                 2.3068                 2.4469
 IR Inten    --    114.6151                56.2590                34.0896

                     43                     44                     45
                      A                      A                      A
 Frequencies --   1100.8235              1116.4430              1141.4113
 Red. masses --      3.1360                 2.4921                 1.5517
 Frc consts  --      2.2390                 1.8302                 1.1911
 IR Inten    --      8.1741                34.4609                 3.2561

                     46                     47                     48
                      A                      A                      A
 Frequencies --   1153.6012              1188.3877              1193.9299
 Red. masses --      2.1856                 1.2731                 1.3446
 Frc consts  --      1.7137                 1.0594                 1.1293
 IR Inten    --      1.9991                10.4473                 4.3407

                     49                     50                     51
                      A                      A                      A
 Frequencies --   1218.6123              1246.8839              1261.9210
 Red. masses --      1.1543                 1.1836                 1.1730
 Frc consts  --      1.0100                 1.0842                 1.1006
 IR Inten    --      8.4163                38.4290                 5.3727

                     52                     53                     54
                      A                      A                      A
 Frequencies --   1279.4162              1300.2607              1302.7175
 Red. masses --      1.1723                 1.1072                 1.1565
 Frc consts  --      1.1306                 1.1029                 1.1564
 IR Inten    --      1.4647                 3.6076                 4.4312

                     55                     56                     57
                      A                      A                      A
 Frequencies --   1316.6469              1338.9930              1350.2492
 Red. masses --      1.2005                 1.3533                 1.2683
 Frc consts  --      1.2261                 1.4296                 1.3624
 IR Inten    --      3.1793                 0.7430                 3.1127

                     58                     59                     60
                      A                      A                      A
 Frequencies --   1354.4840              1355.9921              1379.4133
 Red. masses --      1.2097                 1.2282                 1.1947
 Frc consts  --      1.3076                 1.3306                 1.3394
 IR Inten    --     14.4026                 4.9286                 5.7639

                     61                     62                     63
                      A                      A                      A
 Frequencies --   1392.5997              1405.4817              1433.7191
 Red. masses --      1.1985                 1.1815                 1.2030
 Frc consts  --      1.3694                 1.3751                 1.4569
 IR Inten    --      4.7057                23.1404                 3.9824

                     64                     65                     66
                      A                      A                      A
 Frequencies --   1448.5640              1464.9976              1473.9127
 Red. masses --      1.2461                 1.4964                 1.0767
 Frc consts  --      1.5405                 1.8922                 1.3781
 IR Inten    --      1.2612                 2.7501                 1.7260

                     67                     68                     69
                      A                      A                      A
 Frequencies --   1475.8274              1484.9057              1511.2706
 Red. masses --      1.1009                 1.0889                 1.0771
 Frc consts  --      1.4128                 1.4146                 1.4494
 IR Inten    --      4.6628                 3.8793                 3.7421

                     70                     71                     72
                      A                      A                      A
 Frequencies --   1528.2288              1601.0175              1619.8061
 Red. masses --      1.0867                 4.5473                 4.2076
 Frc consts  --      1.4953                 6.8675                 6.5045
 IR Inten    --      5.3271                 7.5864                11.3345

                     73                     74                     75
                      A                      A                      A
 Frequencies --   2952.1344              2966.4564              2992.1420
 Red. masses --      1.0655                 1.0686                 1.0746
 Frc consts  --      5.4712                 5.5403                 5.6686
 IR Inten    --     61.6899                39.7164                23.6483

                     76                     77                     78
                      A                      A                      A
 Frequencies --   3010.7993              3014.4212              3021.0528
 Red. masses --      1.0887                 1.0649                 1.0645
 Frc consts  --      5.8147                 5.7014                 5.7241
 IR Inten    --     85.8717                 9.6933                37.0777

                     79                     80                     81
                      A                      A                      A
 Frequencies --   3033.3484              3041.6237              3063.0715
 Red. masses --      1.0847                 1.0920                 1.0852
 Frc consts  --      5.8806                 5.9523                 5.9990
 IR Inten    --     51.1579                39.2520                 8.1987

                     82                     83                     84
                      A                      A                      A
 Frequencies --   3078.0435              3088.3683              3098.3438
 Red. masses --      1.0962                 1.0957                 1.0934
 Frc consts  --      6.1194                 6.1572                 6.1844
 IR Inten    --     11.9529                 8.5401                16.7205

                     85                     86                     87
                      A                      A                      A
 Frequencies --   3111.8336              3137.1794              3164.2702
 Red. masses --      1.0880                 1.0877                 1.0885
 Frc consts  --      6.2072                 6.3074                 6.4216
 IR Inten    --     23.6023                19.3165                13.2736

                     88                     89                     90
                      A                      A                      A
 Frequencies --   3488.0070              3548.0752              3836.9468
 Red. masses --      1.0738                 1.0748                 1.0665
 Frc consts  --      7.6969                 7.9719                 9.2509
 IR Inten    --      2.2766                 8.9387                27.1286

 - Thermochemistry -
 -------------------
 Temperature   298.150 Kelvin.  Pressure   1.00000 Atm.
 Atom     1 has atomic number  8 and mass  15.99491

 Molecular mass:   214.11399 amu.
 Principal axes and moments of inertia in atomic units:
                           1         2         3
     Eigenvalues --  1995.488256357.495406987.53099
           X            0.99994  -0.00774   0.00714
           Y            0.00746   0.99922   0.03881
           Z           -0.00744  -0.03875   0.99922
 This molecule is an asymmetric top.
 Rotational symmetry number  1.
 Warning -- assumption of classical behavior for rotation
           may cause significant error
 Rotational temperatures (Kelvin)      0.04340     0.01362     0.01240
 Rotational constants (GHZ):           0.90441     0.28388     0.25828
 Zero-point vibrational energy     722341.9 (Joules/Mol)
                                  172.64385 (Kcal/Mol)
 Warning -- explicit consideration of  24 degrees of freedom as
           vibrations may cause significant error
 Vibrational temperatures:     34.98    47.79    81.30   106.42   179.27
          (Kelvin)            198.96   202.00   257.26   277.43   312.88
                              344.33   378.61   404.70   485.76   528.21
                              539.75   577.84   604.24   633.85   657.25
                              728.15   809.86   826.21   887.39  1033.72
                             1060.31  1140.10  1164.25  1172.24  1201.71
                             1233.02  1251.00  1331.72  1359.33  1409.96
                             1458.32  1464.03  1469.51  1511.39  1559.20
                             1565.17  1580.07  1583.84  1606.31  1642.24
                             1659.77  1709.82  1717.80  1753.31  1793.99
                             1815.62  1840.79  1870.79  1874.32  1894.36
                             1926.51  1942.71  1948.80  1950.97  1984.67
                             2003.64  2022.17  2062.80  2084.16  2107.80
                             2120.63  2123.39  2136.45  2174.38  2198.78
                             2303.51  2330.54  4247.46  4268.07  4305.02
                             4331.87  4337.08  4346.62  4364.31  4376.22
                             4407.08  4428.62  4443.47  4457.83  4477.23
                             4513.70  4552.68  5018.46  5104.89  5520.51

 Zero-point correction=                           0.275125 (Hartree/Particle)
 Thermal correction to Energy=                    0.290655
 Thermal correction to Enthalpy=                  0.291599
 Thermal correction to Gibbs Free Energy=         0.230920
 Sum of electronic and zero-point Energies=           -974.408950
 Sum of electronic and thermal Energies=              -974.393421
 Sum of electronic and thermal Enthalpies=            -974.392476
 Sum of electronic and thermal Free Energies=         -974.453155

                     E (Thermal)             CV                S
                      KCal/Mol        Cal/Mol-Kelvin    Cal/Mol-Kelvin
 Total                  182.388             58.021            127.710
 Electronic               0.000              0.000              0.000
 Translational            0.889              2.981             41.987
 Rotational               0.889              2.981             32.850
 Vibrational            180.611             52.059             52.873
 Vibration     1          0.593              1.985              6.246
 Vibration     2          0.594              1.983              5.628
 Vibration     3          0.596              1.975              4.576
 Vibration     4          0.599              1.966              4.045
 Vibration     5          0.610              1.928              3.028
 Vibration     6          0.614              1.915              2.827
 Vibration     7          0.615              1.913              2.798
 Vibration     8          0.629              1.868              2.341
 Vibration     9          0.635              1.850              2.201
 Vibration    10          0.646              1.814              1.980
 Vibration    11          0.657              1.780              1.808
 Vibration    12          0.670              1.740              1.641
 Vibration    13          0.681              1.708              1.526
 Vibration    14          0.718              1.600              1.223
 Vibration    15          0.740              1.540              1.092
 Vibration    16          0.746              1.523              1.059
 Vibration    17          0.767              1.467              0.957
 Vibration    18          0.783              1.427              0.892
 Vibration    19          0.800              1.382              0.825
 Vibration    20          0.815              1.346              0.775
 Vibration    21          0.861              1.236              0.643
 Vibration    22          0.919              1.112              0.518
 Vibration    23          0.931              1.087              0.496
 Vibration    24          0.976              0.996              0.422

 Optimization completed.
    -- Stationary point found.
 Normal termination of Gaussian 16 at Mon May 22 22:52:48 2023.
