 Gaussian 16, Revision A.03,
 Gaussian 16:  ES64L-G16RevA.03 25-Dec-2016

 -----------------------------
 # opt freq b3lyp/6-31g(2df,p)
 -----------------------------

 -------------------
 Title Card Required
 -------------------
 Symbolic Z-matrix:
 Charge =  0 Multiplicity = 1

 SCF Done:  E(RB3LYP) =  -622.171423878     A.U. after   12 cycles
 SCF Done:  E(RB3LYP) =  -622.182079769     A.U. after   10 cycles
 SCF Done:  E(RB3LYP) =  -622.183774148     A.U. after   10 cycles
 SCF Done:  E(RB3LYP) =  -622.184437917     A.U. after    9 cycles
 SCF Done:  E(RB3LYP) =  -622.184695096     A.U. after    9 cycles
 SCF Done:  E(RB3LYP) =  -622.184750347     A.U. after    9 cycles
 SCF Done:  E(RB3LYP) =  -622.184770799     A.U. after    9 cycles
 SCF Done:  E(RB3LYP) =  -622.184776964     A.U. after    8 cycles
 SCF Done:  E(RB3LYP) =  -622.184778958     A.U. after    8 cycles
 SCF Done:  E(RB3LYP) =  -622.184779183     A.U. after    7 cycles
 SCF Done:  E(RB3LYP) =  -622.184779212     A.U. after    5 cycles
 Optimization completed.
    -- Stationary point found.
 Normal termination of Gaussian 16 at Tue May 23 17:49:18 2023.

 ----------------------------------------------------------------------
 #N Geom=AllCheck Guess=TCheck SCRF=Check GenChk RB3LYP/6-31G(2df,p) Fr
 eq
 ----------------------------------------------------------------------

 Structure from the checkpoint file:  "OCCOCCCCCCC1CCC1.chk"
 -------------------
 Title Card Required
 -------------------
 Charge =  0 Multiplicity = 1

                         Standard orientation:
 ---------------------------------------------------------------------
 Center     Atomic      Atomic             Coordinates (Angstroms)
 Number     Number       Type             X           Y           Z
 ---------------------------------------------------------------------
      1          8           0       -7.439267   -0.523184   -0.000098
      2          6           0       -6.305053    0.328062   -0.000310
      3          6           0       -5.075571   -0.567143    0.000099
      4          8           0       -3.937026    0.261015    0.000030
      5          6           0       -2.721198   -0.457397    0.000214
      6          6           0       -1.565084    0.533116    0.000156
      7          6           0       -0.195224   -0.152552    0.000319
      8          6           0        0.975108    0.836866   -0.000025
      9          6           0        2.349279    0.156812    0.000483
     10          6           0        3.508365    1.161264   -0.000467
     11          6           0        4.921131    0.574599   -0.000473
     12          6           0        5.377321   -0.446543    1.083393
     13          6           0        6.248139   -1.138062    0.000140
     14          6           0        5.376888   -0.447661   -1.083466
     15          1           0       -8.226769    0.027328   -0.000435
     16          1           0       -6.275821    0.977393    0.887566
     17          1           0       -6.275695    0.976777   -0.888632
     18          1           0       -5.095598   -1.220759   -0.887405
     19          1           0       -5.095852   -1.220272    0.887956
     20          1           0       -2.665823   -1.113646   -0.886031
     21          1           0       -2.665946   -1.113404    0.886647
     22          1           0       -1.661914    1.182462    0.878940
     23          1           0       -1.661822    1.182240   -0.878803
     24          1           0       -0.113886   -0.809615   -0.876873
     25          1           0       -0.113838   -0.809097    0.877894
     26          1           0        0.894028    1.494511    0.876587
     27          1           0        0.894235    1.493650   -0.877300
     28          1           0        2.421771   -0.500015   -0.876191
     29          1           0        2.421868   -0.498429    0.878330
     30          1           0        3.405721    1.818490    0.875059
     31          1           0        3.405238    1.817374   -0.876774
     32          1           0        5.631900    1.410135   -0.001040
     33          1           0        4.556861   -1.095518    1.404074
     34          1           0        5.875288   -0.054009    1.974001
     35          1           0        6.288668   -2.229894    0.000700
     36          1           0        7.272304   -0.753501   -0.000269
     37          1           0        4.556311   -1.096973   -1.403166
     38          1           0        5.874503   -0.056037   -1.974669
 ---------------------------------------------------------------------

 SCF Done:  E(RB3LYP) =  -622.184779212     A.U. after    1 cycles

 The electronic state is 1-A.
 Alpha  occ. eigenvalues --  -19.13459 -19.13399 -10.22314 -10.22192 -10.22028
 Alpha  occ. eigenvalues --  -10.17960 -10.17788 -10.17541 -10.17496 -10.17458
 Alpha  occ. eigenvalues --  -10.17374 -10.17307 -10.17226 -10.17225  -1.03097
 Alpha  occ. eigenvalues --   -1.01350  -0.83806  -0.80339  -0.77089  -0.73851
 Alpha  occ. eigenvalues --   -0.70138  -0.65204  -0.64938  -0.60724  -0.59771
 Alpha  occ. eigenvalues --   -0.58207  -0.57526  -0.52832  -0.51699  -0.49214
 Alpha  occ. eigenvalues --   -0.47380  -0.47147  -0.46322  -0.45216  -0.45166
 Alpha  occ. eigenvalues --   -0.43624  -0.41896  -0.40336  -0.39087  -0.38623
 Alpha  occ. eigenvalues --   -0.37964  -0.36867  -0.35891  -0.35705  -0.33598
 Alpha  occ. eigenvalues --   -0.33312  -0.32717  -0.32202  -0.31925  -0.31909
 Alpha  occ. eigenvalues --   -0.31054  -0.29515  -0.29008  -0.28673  -0.26686
 Alpha  occ. eigenvalues --   -0.25023
 Alpha virt. eigenvalues --    0.07219   0.08809   0.09174   0.09862   0.10296
 Alpha virt. eigenvalues --    0.11186   0.11229   0.13083   0.13351   0.13913
 Alpha virt. eigenvalues --    0.14562   0.14796   0.16014   0.16020   0.16959

 Mulliken charges:
               1
     1  O   -0.420838
     2  C   -0.092348
     3  C   -0.036666
     4  O   -0.251081
     5  C   -0.049459
     6  C   -0.199001
     7  C   -0.186878
     8  C   -0.174061
     9  C   -0.182966
    10  C   -0.225433
    11  C    0.054153
    12  C   -0.225816
    13  C   -0.203626
    14  C   -0.225815
    15  H    0.290111
    16  H    0.094934
    17  H    0.094931
    18  H    0.093195
    19  H    0.093199
    20  H    0.083281
    21  H    0.083281
    22  H    0.103032
    23  H    0.103031
    24  H    0.093344
    25  H    0.093344
    26  H    0.092827
    27  H    0.092825
    28  H    0.094689
    29  H    0.094696
    30  H    0.090961
    31  H    0.090958
    32  H    0.066188
    33  H    0.099521
    34  H    0.090024
    35  H    0.092618
    36  H    0.099296
    37  H    0.099520
    38  H    0.090026
 Sum of Mulliken charges =  -0.00000

 Dipole moment (field-independent basis, Debye):
    X=              0.0441    Y=              0.6087    Z=             -0.0005  Tot=              0.6103
 Quadrupole moment (field-independent basis, Debye-Ang):
   XX=            -83.4362   YY=            -90.4224   ZZ=            -88.8476
   XY=             -6.0287   XZ=              0.0044   YZ=             -0.0001

  Exact polarizability: 181.175  -2.909 122.526   0.001  -0.000 118.338
 Approx polarizability: 192.583  -0.245 185.416   0.000  -0.001 182.167

                      1                      2                      3
                      A                      A                      A
 Frequencies --     19.4417                29.7225                33.7245
 Red. masses --      3.1759                 2.3571                 4.4960
 Frc consts  --      0.0007                 0.0012                 0.0030
 IR Inten    --      0.0889                 0.2760                 0.0299

                      4                      5                      6
                      A                      A                      A
 Frequencies --     54.3540                66.3219                82.4707
 Red. masses --      3.5713                 1.7131                 3.8750
 Frc consts  --      0.0062                 0.0044                 0.0155
 IR Inten    --      0.0896                 2.8567                 0.2267

                      7                      8                      9
                      A                      A                      A
 Frequencies --     98.2084               115.0735               134.9800
 Red. masses --      2.9082                 1.8630                 3.1507
 Frc consts  --      0.0165                 0.0145                 0.0338
 IR Inten    --      0.4676                 4.6475                 0.6301

                     10                     11                     12
                      A                      A                      A
 Frequencies --    139.1077               158.1620               165.9303
 Red. masses --      2.8018                 1.9598                 2.6644
 Frc consts  --      0.0319                 0.0289                 0.0432
 IR Inten    --      5.3485                 0.2428                10.3065

                     13                     14                     15
                      A                      A                      A
 Frequencies --    175.4395               212.3657               231.5825
 Red. masses --      3.1597                 3.4244                 1.0853
 Frc consts  --      0.0573                 0.0910                 0.0343
 IR Inten    --      0.4491                 1.2652                96.7565

                     16                     17                     18
                      A                      A                      A
 Frequencies --    287.3550               308.2974               361.6811
 Red. masses --      3.6133                 2.1423                 3.5025
 Frc consts  --      0.1758                 0.1200                 0.2699
 IR Inten    --      4.7489                 0.0365                 2.2435

                     19                     20                     21
                      A                      A                      A
 Frequencies --    407.8965               478.1228               526.8620
 Red. masses --      3.7988                 3.1776                 3.1244
 Frc consts  --      0.3724                 0.4280                 0.5110
 IR Inten    --      4.8167                 0.9194                 1.3867

                     22                     23                     24
                      A                      A                      A
 Frequencies --    552.5742               637.9162               729.4096
 Red. masses --      2.6921                 2.6177                 1.0946
 Frc consts  --      0.4843                 0.6276                 0.3431
 IR Inten    --      1.7364                 1.1004                 3.7140

                     25                     26                     27
                      A                      A                      A
 Frequencies --    742.6635               749.5566               773.3543
 Red. masses --      1.1207                 1.5987                 1.1893
 Frc consts  --      0.3642                 0.5292                 0.4191
 IR Inten    --      0.2929                 0.1015                 0.4371

                     28                     29                     30
                      A                      A                      A
 Frequencies --    802.7549               832.9133               871.4252
 Red. masses --      1.1897                 1.0937                 1.3704
 Frc consts  --      0.4517                 0.4471                 0.6131
 IR Inten    --      0.0025                 0.8783                 0.1228

                     31                     32                     33
                      A                      A                      A
 Frequencies --    894.3586               933.2069               934.9347
 Red. masses --      2.1689                 2.4398                 1.6243
 Frc consts  --      1.0222                 1.2518                 0.8365
 IR Inten    --      1.1582                 0.9448                 1.0222

                     34                     35                     36
                      A                      A                      A
 Frequencies --    946.8433               977.5944               993.4522
 Red. masses --      2.7332                 1.0927                 3.3299
 Frc consts  --      1.4437                 0.6153                 1.9363
 IR Inten    --      0.2862                 0.0225                 3.9119

                     37                     38                     39
                      A                      A                      A
 Frequencies --   1005.1927              1024.0766              1027.2428
 Red. masses --      4.0258                 3.9170                 1.2201
 Frc consts  --      2.3966                 2.4203                 0.7586
 IR Inten    --      5.9354                20.0217                 0.0354

                     40                     41                     42
                      A                      A                      A
 Frequencies --   1036.4831              1056.3771              1068.5541
 Red. masses --      2.5909                 2.8009                 2.2224
 Frc consts  --      1.6399                 1.8415                 1.4951
 IR Inten    --     32.3730                 7.2515                 0.4671

                     43                     44                     45
                      A                      A                      A
 Frequencies --   1087.0256              1104.5378              1136.3507
 Red. masses --      4.4002                 2.6574                 2.4355
 Frc consts  --      3.0634                 1.9101                 1.8530
 IR Inten    --     64.1426                 6.2779                 0.7652

                     46                     47                     48
                      A                      A                      A
 Frequencies --   1146.9262              1153.9012              1165.5759
 Red. masses --      2.8789                 1.5196                 1.4987
 Frc consts  --      2.2313                 1.1921                 1.1997
 IR Inten    --      0.7672                 1.0567                 0.0007

                     49                     50                     51
                      A                      A                      A
 Frequencies --   1171.4343              1200.7261              1211.8006
 Red. masses --      7.4367                 1.4847                 1.3781
 Frc consts  --      6.0127                 1.2612                 1.1924
 IR Inten    --    289.4140                 0.2154                 0.1559

                     52                     53                     54
                      A                      A                      A
 Frequencies --   1230.1823              1234.0901              1246.2440
 Red. masses --      1.2303                 1.3308                 1.2900
 Frc consts  --      1.0970                 1.1941                 1.1804
 IR Inten    --      6.7602                 4.7647                 9.9675

                     55                     56                     57
                      A                      A                      A
 Frequencies --   1252.4963              1256.5222              1260.7959
 Red. masses --      1.2172                 1.2792                 1.3363
 Frc consts  --      1.1250                 1.1900                 1.2516
 IR Inten    --      0.1352                25.6052                 0.7230

                     58                     59                     60
                      A                      A                      A
 Frequencies --   1266.5493              1278.0669              1292.5723
 Red. masses --      1.2615                 1.4726                 1.2645
 Frc consts  --      1.1923                 1.4173                 1.2448
 IR Inten    --      2.2413                 1.4204                 0.1055

                     61                     62                     63
                      A                      A                      A
 Frequencies --   1295.1467              1298.8135              1310.1582
 Red. masses --      1.1047                 1.3769                 1.1292
 Frc consts  --      1.0918                 1.3685                 1.1420
 IR Inten    --      0.8875                 0.4605                 0.0017

                     64                     65                     66
                      A                      A                      A
 Frequencies --   1322.3526              1333.3533              1345.1831
 Red. masses --      1.1779                 1.0751                 1.1646
 Frc consts  --      1.2135                 1.1261                 1.2416
 IR Inten    --      0.0000                 0.0066                 0.6785

                     67                     68                     69
                      A                      A                      A
 Frequencies --   1351.8326              1373.4145              1382.7966
 Red. masses --      1.4745                 1.3608                 1.4108
 Frc consts  --      1.5876                 1.5123                 1.5894
 IR Inten    --      0.1255                40.0536                 3.5946

                     70                     71                     72
                      A                      A                      A
 Frequencies --   1401.3017              1408.4581              1436.4293
 Red. masses --      1.6068                 1.4666                 1.4549
 Frc consts  --      1.8590                 1.7141                 1.7687
 IR Inten    --      0.8482                14.2850                18.1116

                     73                     74                     75
                      A                      A                      A
 Frequencies --   1476.1048              1478.2999              1478.8732
 Red. masses --      1.0818                 1.5883                 1.0908
 Frc consts  --      1.3888                 2.0451                 1.4056
 IR Inten    --      1.1929                 0.6897                 0.2424

                     76                     77                     78
                      A                      A                      A
 Frequencies --   1483.3462              1486.8844              1488.2495
 Red. masses --      1.0763                 1.0824                 1.0860
 Frc consts  --      1.3952                 1.4099                 1.4171
 IR Inten    --      0.2659                 1.6791                 0.0957

                     79                     80                     81
                      A                      A                      A
 Frequencies --   1498.6888              1509.9819              1512.2323
 Red. masses --      1.0949                 1.1064                 1.1295
 Frc consts  --      1.4490                 1.4864                 1.5219
 IR Inten    --      0.0006                 5.0848                 0.3543

                     82                     83                     84
                      A                      A                      A
 Frequencies --   1517.5976              1530.1168              1539.8172
 Red. masses --      1.0870                 1.0877                 1.0921
 Frc consts  --      1.4750                 1.5004                 1.5257
 IR Inten    --      3.3742                 5.9209                 0.8822

                     85                     86                     87
                      A                      A                      A
 Frequencies --   2942.5169              2966.4627              2968.5015
 Red. masses --      1.0537                 1.0542                 1.1047
 Frc consts  --      5.3756                 5.4659                 5.7356
 IR Inten    --     29.1844                44.7396                49.2073

                     88                     89                     90
                      A                      A                      A
 Frequencies --   2983.2722              2989.7169              2994.0550
 Red. masses --      1.0544                 1.1041                 1.0598
 Frc consts  --      5.5287                 5.8146                 5.5975
 IR Inten    --     67.3459                 7.5178                13.5669

                     91                     92                     93
                      A                      A                      A
 Frequencies --   3001.2515              3005.6936              3018.2706
 Red. masses --      1.0578                 1.0582                 1.0592
 Frc consts  --      5.6140                 5.6326                 5.6851
 IR Inten    --      0.3191                12.2485                55.3833

                     94                     95                     96
                      A                      A                      A
 Frequencies --   3022.6541              3024.2329              3024.4499
 Red. masses --      1.0980                 1.1097                 1.1007
 Frc consts  --      5.9104                 5.9799                 5.9319
 IR Inten    --      3.7366                89.8560                18.0331

                     97                     98                     99
                      A                      A                      A
 Frequencies --   3025.1921              3029.9123              3040.2101
 Red. masses --      1.0830                 1.0587                 1.1022
 Frc consts  --      5.8396                 5.7265                 6.0020
 IR Inten    --     37.5786                59.5791                 1.9173

                    100                    101                    102
                      A                      A                      A
 Frequencies --   3049.5592              3051.5806              3058.4082
 Red. masses --      1.0607                 1.0568                 1.0620
 Frc consts  --      5.8120                 5.7981                 5.8529
 IR Inten    --     34.1935                28.0599                21.9145

                    103                    104                    105
                      A                      A                      A
 Frequencies --   3063.8249              3075.4726              3093.1023
 Red. masses --      1.1023                 1.1049                 1.1060
 Frc consts  --      6.0965                 6.1572                 6.2344
 IR Inten    --     62.4549               112.1924                21.8807

                    106                    107                    108
                      A                      A                      A
 Frequencies --   3100.5284              3116.0278              3841.7273
 Red. masses --      1.1077                 1.1072                 1.0665
 Frc consts  --      6.2742                 6.3340                 9.2743
 IR Inten    --     11.7175                82.7030                27.0448

 - Thermochemistry -
 -------------------
 Temperature   298.150 Kelvin.  Pressure   1.00000 Atm.
 Atom     1 has atomic number  8 and mass  15.99491

 Molecular mass:   200.17763 amu.
 Principal axes and moments of inertia in atomic units:
                           1         2         3
     Eigenvalues --   541.91534********************
           X            1.00000  -0.00179   0.00000
           Y            0.00179   1.00000  -0.00002
           Z           -0.00000   0.00002   1.00000
 This molecule is an asymmetric top.
 Rotational symmetry number  1.
 Warning -- assumption of classical behavior for rotation
           may cause significant error
 Rotational temperatures (Kelvin)      0.15983     0.00569     0.00563
 Rotational constants (GHZ):           3.33030     0.11860     0.11731
 Zero-point vibrational energy     909878.7 (Joules/Mol)
                                  217.46623 (Kcal/Mol)
 Warning -- explicit consideration of  22 degrees of freedom as
           vibrations may cause significant error
 Vibrational temperatures:     27.97    42.76    48.52    78.20    95.42
          (Kelvin)            118.66   141.30   165.57   194.21   200.14
                              227.56   238.74   252.42   305.55   333.20
                              413.44   443.57   520.38   586.87   687.91
                              758.04   795.03   917.82  1049.46  1068.53
                             1078.44  1112.68  1154.99  1198.38  1253.79
                             1286.78  1342.68  1345.16  1362.30  1406.54
                             1429.36  1446.25  1473.42  1477.97  1491.27
                             1519.89  1537.41  1563.99  1589.18  1634.96
                             1650.17  1660.21  1677.00  1685.43  1727.58
                             1743.51  1769.96  1775.58  1793.07  1802.06
                             1807.86  1814.00  1822.28  1838.85  1859.72
                             1863.43  1868.70  1885.03  1902.57  1918.40
                             1935.42  1944.99  1976.04  1989.54  2016.16
                             2026.46  2066.70  2123.79  2126.94  2127.77
                             2134.20  2139.30  2141.26  2156.28  2172.53
                             2175.76  2183.48  2201.50  2215.45  4233.63
                             4268.08  4271.01  4292.26  4301.54  4307.78
                             4318.13  4324.52  4342.62  4348.93  4351.20
                             4351.51  4352.58  4359.37  4374.18  4387.64
                             4390.54  4400.37  4408.16  4424.92  4450.28
                             4460.97  4483.27  5527.39

 Zero-point correction=                           0.346554 (Hartree/Particle)
 Thermal correction to Energy=                    0.363902
 Thermal correction to Enthalpy=                  0.364846
 Thermal correction to Gibbs Free Energy=         0.298041
 Sum of electronic and zero-point Energies=           -621.838225
 Sum of electronic and thermal Energies=              -621.820877
 Sum of electronic and thermal Enthalpies=            -621.819933
 Sum of electronic and thermal Free Energies=         -621.886738

                     E (Thermal)             CV                S
                      KCal/Mol        Cal/Mol-Kelvin    Cal/Mol-Kelvin
 Total                  228.352             61.250            140.602
 Electronic               0.000              0.000              0.000
 Translational            0.889              2.981             41.787
 Rotational               0.889              2.981             33.206
 Vibrational            226.574             55.288             65.609
 Vibration     1          0.593              1.986              6.690
 Vibration     2          0.594              1.984              5.848
 Vibration     3          0.594              1.983              5.597
 Vibration     4          0.596              1.976              4.652
 Vibration     5          0.598              1.970              4.260
 Vibration     6          0.600              1.961              3.831
 Vibration     7          0.604              1.950              3.490
 Vibration     8          0.608              1.937              3.181
 Vibration     9          0.613              1.918              2.874
 Vibration    10          0.615              1.914              2.816
 Vibration    11          0.621              1.893              2.572
 Vibration    12          0.624              1.884              2.481
 Vibration    13          0.627              1.873              2.376
 Vibration    14          0.643              1.822              2.023
 Vibration    15          0.653              1.793              1.867
 Vibration    16          0.685              1.697              1.489
 Vibration    17          0.698              1.658              1.371
 Vibration    18          0.736              1.551              1.115
 Vibration    19          0.772              1.453              0.934
 Vibration    20          0.835              1.299              0.715
 Vibration    21          0.882              1.191              0.594
 Vibration    22          0.908              1.134              0.539

 Optimization completed.
    -- Stationary point found.
 Normal termination of Gaussian 16 at Tue May 23 19:29:59 2023.
