 Gaussian 16, Revision A.03,
 Gaussian 16:  ES64L-G16RevA.03 25-Dec-2016

 -----------------------------
 # opt freq b3lyp/6-31g(2df,p)
 -----------------------------

 -------------------
 Title Card Required
 -------------------
 Symbolic Z-matrix:
 Charge =  0 Multiplicity = 1

 SCF Done:  E(RB3LYP) =  -1045.96252112     A.U. after   20 cycles
 SCF Done:  E(RB3LYP) =  -1046.00245168     A.U. after   15 cycles
 SCF Done:  E(RB3LYP) =  -1046.04704312     A.U. after   15 cycles
 SCF Done:  E(RB3LYP) =  -1046.08480041     A.U. after   15 cycles
 SCF Done:  E(RB3LYP) =  -1046.10896157     A.U. after   14 cycles
 SCF Done:  E(RB3LYP) =  -1046.11901399     A.U. after   14 cycles
 SCF Done:  E(RB3LYP) =  -1046.12622600     A.U. after   14 cycles
 SCF Done:  E(RB3LYP) =  -1046.12993002     A.U. after   14 cycles
 SCF Done:  E(RB3LYP) =  -1046.13257341     A.U. after   14 cycles
 SCF Done:  E(RB3LYP) =  -1046.13579911     A.U. after   13 cycles
 SCF Done:  E(RB3LYP) =  -1046.13792419     A.U. after   13 cycles
 SCF Done:  E(RB3LYP) =  -1046.13925367     A.U. after   13 cycles
 SCF Done:  E(RB3LYP) =  -1046.13967205     A.U. after   13 cycles
 SCF Done:  E(RB3LYP) =  -1046.14000824     A.U. after   12 cycles
 SCF Done:  E(RB3LYP) =  -1046.14008049     A.U. after   11 cycles
 SCF Done:  E(RB3LYP) =  -1046.14008965     A.U. after    9 cycles
 SCF Done:  E(RB3LYP) =  -1046.14009094     A.U. after    8 cycles
 SCF Done:  E(RB3LYP) =  -1046.14009124     A.U. after    8 cycles
 SCF Done:  E(RB3LYP) =  -1046.14009131     A.U. after    7 cycles
 Optimization completed.
    -- Stationary point found.
 Normal termination of Gaussian 16 at Sun May 28 07:49:26 2023.

 ----------------------------------------------------------------------
 #N Geom=AllCheck Guess=TCheck SCRF=Check GenChk RB3LYP/6-31G(2df,p) Fr
 eq
 ----------------------------------------------------------------------

 Structure from the checkpoint file:  "OdC1CdCN2CdCCdCC2dCNdCCdCS1.chk"
 -------------------
 Title Card Required
 -------------------
 Charge =  0 Multiplicity = 1

                         Standard orientation:
 ---------------------------------------------------------------------
 Center     Atomic      Atomic             Coordinates (Angstroms)
 Number     Number       Type             X           Y           Z
 ---------------------------------------------------------------------
      1          8           0        2.635515   -2.633794    0.586493
      2          6           0        2.190250   -1.568526    0.239242
      3          6           0        0.738308   -1.260153    0.407854
      4          6           0       -0.062155   -0.544192   -0.392126
      5          7           0       -1.483112   -0.467712   -0.191028
      6          6           0       -2.189386   -1.647171   -0.137979
      7          6           0       -3.540259   -1.688719   -0.022796
      8          6           0       -4.252748   -0.454929    0.028590
      9          6           0       -3.571999    0.720604   -0.008862
     10          6           0       -2.142650    0.777746   -0.088360
     11          6           0       -1.443891    1.973042    0.031183
     12          7           0       -0.108488    1.896995    0.044434
     13          6           0        0.852433    2.666630    0.429086
     14          6           0        2.154567    1.995325    0.434166
     15          6           0        2.418706    1.121653   -0.556286
     16         16           0        3.392337   -0.344599   -0.415830
     17          1           0        0.320869   -1.753920    1.281747
     18          1           0        0.274643   -0.083751   -1.304281
     19          1           0       -1.577402   -2.534397   -0.226006
     20          1           0       -4.047828   -2.643038    0.001946
     21          1           0       -5.334989   -0.457632    0.097393
     22          1           0       -4.091382    1.670301    0.045355
     23          1           0       -2.012047    2.885232    0.227496
     24          1           0        0.710354    3.673843    0.836678
     25          1           0        2.792283    2.073658    1.312962
     26          1           0        1.838143    1.200806   -1.468068
 ---------------------------------------------------------------------

 SCF Done:  E(RB3LYP) =  -1046.14009131     A.U. after    1 cycles

 The electronic state is 1-A.
 Alpha  occ. eigenvalues --  -88.87946 -19.13340 -14.41638 -14.32951 -10.29197
 Alpha  occ. eigenvalues --  -10.25381 -10.25323 -10.25246 -10.21864 -10.21769
 Alpha  occ. eigenvalues --  -10.21089 -10.20591 -10.20472 -10.20439 -10.20232
 Alpha  occ. eigenvalues --  -10.19621  -7.94176  -5.90627  -5.90257  -5.89815
 Alpha  occ. eigenvalues --   -1.04737  -1.00823  -0.92865  -0.84806  -0.82015
 Alpha  occ. eigenvalues --   -0.80000  -0.78239  -0.74516  -0.69546  -0.68326
 Alpha  occ. eigenvalues --   -0.65298  -0.61995  -0.59798  -0.55456  -0.54516
 Alpha  occ. eigenvalues --   -0.53757  -0.51386  -0.50826  -0.48516  -0.47886
 Alpha  occ. eigenvalues --   -0.46627  -0.46221  -0.44264  -0.43198  -0.42499
 Alpha  occ. eigenvalues --   -0.41654  -0.40074  -0.39664  -0.38476  -0.37969
 Alpha  occ. eigenvalues --   -0.37117  -0.34715  -0.32595  -0.29735  -0.29253
 Alpha  occ. eigenvalues --   -0.27595  -0.24601  -0.23717  -0.22975  -0.18032
 Alpha virt. eigenvalues --   -0.07406  -0.04069  -0.03588   0.00418   0.03618
 Alpha virt. eigenvalues --    0.05501   0.05998   0.08118   0.09075   0.10857
 Alpha virt. eigenvalues --    0.11150   0.12710   0.13294   0.14319   0.14959

 Mulliken charges:
               1
     1  O   -0.307856
     2  C    0.314425
     3  C   -0.207561
     4  C    0.026175
     5  N   -0.186708
     6  C    0.046575
     7  C   -0.208026
     8  C   -0.082131
     9  C   -0.160859
    10  C    0.345079
    11  C   -0.163594
    12  N   -0.138405
    13  C   -0.102033
    14  C   -0.069788
    15  C   -0.124894
    16  S   -0.152432
    17  H    0.123705
    18  H    0.142624
    19  H    0.152225
    20  H    0.116460
    21  H    0.117055
    22  H    0.113693
    23  H    0.086426
    24  H    0.088162
    25  H    0.115339
    26  H    0.116344
 Sum of Mulliken charges =  -0.00000

 Dipole moment (field-independent basis, Debye):
    X=             -5.8703    Y=              1.5860    Z=             -0.0737  Tot=              6.0812
 Quadrupole moment (field-independent basis, Debye-Ang):
   XX=            -98.9148   YY=            -97.7914   ZZ=            -98.5834
   XY=             10.5901   XZ=             -0.1269   YZ=              3.1087

  Exact polarizability: 285.399  23.683 204.330   1.347   3.542  87.105
 Approx polarizability: 486.368  71.449 419.762   7.336   0.277 163.362

                      1                      2                      3
                      A                      A                      A
 Frequencies --     52.2663                78.9199               103.8872
 Red. masses --      8.0321                 4.9871                 4.9228
 Frc consts  --      0.0129                 0.0183                 0.0313
 IR Inten    --      0.9828                 0.1660                 0.1206

                      4                      5                      6
                      A                      A                      A
 Frequencies --    142.4586               172.4114               183.1436
 Red. masses --      5.7079                 4.4997                 5.8215
 Frc consts  --      0.0683                 0.0788                 0.1150
 IR Inten    --      2.2632                 3.2707                 5.7239

                      7                      8                      9
                      A                      A                      A
 Frequencies --    211.4026               262.7201               277.0824
 Red. masses --      3.7153                 3.5262                 3.5295
 Frc consts  --      0.0978                 0.1434                 0.1597
 IR Inten    --      1.4574                 3.8427                 2.5213

                     10                     11                     12
                      A                      A                      A
 Frequencies --    293.1734               325.5540               347.8708
 Red. masses --      4.5902                 5.4218                 4.2362
 Frc consts  --      0.2325                 0.3386                 0.3020
 IR Inten    --      2.2048                15.4043                11.5935

                     13                     14                     15
                      A                      A                      A
 Frequencies --    355.5948               396.1541               424.5140
 Red. masses --      3.3852                 9.3124                 3.4769
 Frc consts  --      0.2522                 0.8611                 0.3692
 IR Inten    --      7.8409                 0.2447                 5.7367

                     16                     17                     18
                      A                      A                      A
 Frequencies --    434.8199               462.1357               506.8964
 Red. masses --      3.5157                 5.5628                 7.3500
 Frc consts  --      0.3916                 0.7000                 1.1127
 IR Inten    --      3.2614                 8.2781                 6.1511

                     19                     20                     21
                      A                      A                      A
 Frequencies --    530.5667               601.0275               620.7499
 Red. masses --      3.1549                 6.2517                 5.0741
 Frc consts  --      0.5233                 1.3306                 1.1520
 IR Inten    --      7.1238                17.0059                 5.5510

                     22                     23                     24
                      A                      A                      A
 Frequencies --    635.3393               657.1933               662.6139
 Red. masses --      5.2248                 5.3109                 5.7284
 Frc consts  --      1.2426                 1.3515                 1.4819
 IR Inten    --     17.3597                 4.0940                17.0486

                     25                     26                     27
                      A                      A                      A
 Frequencies --    719.6652               750.0094               778.3079
 Red. masses --      4.1085                 1.2411                 1.3869
 Frc consts  --      1.2537                 0.4113                 0.4950
 IR Inten    --      6.7385                26.1395                29.5939

                     28                     29                     30
                      A                      A                      A
 Frequencies --    806.5140               815.8521               838.4362
 Red. masses --      3.3877                 2.6564                 2.4890
 Frc consts  --      1.2983                 1.0418                 1.0309
 IR Inten    --      2.5447                19.7117                48.5146

                     31                     32                     33
                      A                      A                      A
 Frequencies --    845.4815               851.8790               895.6599
 Red. masses --      1.9326                 1.6521                 1.9654
 Frc consts  --      0.8140                 0.7064                 0.9289
 IR Inten    --      1.1281                10.5735                17.1404

                     34                     35                     36
                      A                      A                      A
 Frequencies --    909.9855               949.3726               951.6435
 Red. masses --      3.6794                 1.3153                 1.3221
 Frc consts  --      1.7951                 0.6985                 0.7054
 IR Inten    --     14.8355                 2.6118                 3.9130

                     37                     38                     39
                      A                      A                      A
 Frequencies --    982.3085               990.4870              1033.6794
 Red. masses --      1.1485                 1.2847                 2.3115
 Frc consts  --      0.6530                 0.7426                 1.4552
 IR Inten    --     36.9761                 1.1882                 2.8572

                     40                     41                     42
                      A                      A                      A
 Frequencies --   1039.9904              1092.9126              1137.6853
 Red. masses --      2.0825                 5.3423                 2.3097
 Frc consts  --      1.3271                 3.7596                 1.7614
 IR Inten    --     29.2127                18.2308                23.1067

                     43                     44                     45
                      A                      A                      A
 Frequencies --   1176.4348              1197.8170              1201.7532
 Red. masses --      1.2629                 2.2548                 2.9639
 Frc consts  --      1.0298                 1.9061                 2.5220
 IR Inten    --     51.3113                10.6858                67.2762

                     46                     47                     48
                      A                      A                      A
 Frequencies --   1242.5169              1252.0333              1265.0291
 Red. masses --      1.3189                 1.7883                 1.3006
 Frc consts  --      1.1997                 1.6516                 1.2263
 IR Inten    --     25.3738                 4.4784                13.4472

                     49                     50                     51
                      A                      A                      A
 Frequencies --   1295.5815              1308.4194              1338.5472
 Red. masses --      1.5144                 1.2622                 1.5431
 Frc consts  --      1.4977                 1.2732                 1.6289
 IR Inten    --      0.3417                 5.1399                13.9645

                     52                     53                     54
                      A                      A                      A
 Frequencies --   1349.0966              1369.8336              1427.9807
 Red. masses --      1.3431                 2.4905                 1.8555
 Frc consts  --      1.4403                 2.7534                 2.2292
 IR Inten    --      3.1775                70.9575                 3.2325

                     55                     56                     57
                      A                      A                      A
 Frequencies --   1488.0717              1525.0343              1569.7369
 Red. masses --      2.0594                 6.0518                 5.1893
 Frc consts  --      2.6868                 8.2927                 7.5338
 IR Inten    --      6.1977               741.8411                 4.7841

                     58                     59                     60
                      A                      A                      A
 Frequencies --   1590.8465              1650.4898              1659.4906
 Red. masses --      6.3470                 6.5039                 6.2212
 Frc consts  --      9.4640                10.4388                10.0942
 IR Inten    --     32.1844               189.2698                10.4165

                     61                     62                     63
                      A                      A                      A
 Frequencies --   1686.1120              1758.6301              3045.1398
 Red. masses --      6.0246                12.8560                 1.0861
 Frc consts  --     10.0915                23.4263                 5.9337
 IR Inten    --     42.6831               353.1140                64.9370

                     64                     65                     66
                      A                      A                      A
 Frequencies --   3077.8066              3147.4075              3164.6647
 Red. masses --      1.0858                 1.0899                 1.0885
 Frc consts  --      6.0602                 6.3615                 6.4232
 IR Inten    --     65.7258                17.4364                 1.4814

                     67                     68                     69
                      A                      A                      A
 Frequencies --   3176.9343              3187.4328              3205.1459
 Red. masses --      1.0875                 1.0857                 1.0949
 Frc consts  --      6.4667                 6.4990                 6.6269
 IR Inten    --     14.2072                 2.3777                12.5342

                     70                     71                     72
                      A                      A                      A
 Frequencies --   3222.8045              3238.8199              3276.7988
 Red. masses --      1.0879                 1.0981                 1.0909
 Frc consts  --      6.6576                 6.7871                 6.9013
 IR Inten    --      0.2700                 2.2314                 0.5487

 - Thermochemistry -
 -------------------
 Temperature   298.150 Kelvin.  Pressure   1.00000 Atm.
 Atom     1 has atomic number  8 and mass  15.99491

 Molecular mass:   230.05138 amu.
 Principal axes and moments of inertia in atomic units:
                           1         2         3
     Eigenvalues --  2063.622095285.080657115.07833
           X            0.99988   0.01568   0.00057
           Y           -0.01568   0.99986   0.00613
           Z           -0.00048  -0.00614   0.99998
 This molecule is an asymmetric top.
 Rotational symmetry number  1.
 Warning -- assumption of classical behavior for rotation
           may cause significant error
 Rotational temperatures (Kelvin)      0.04197     0.01639     0.01217
 Rotational constants (GHZ):           0.87455     0.34148     0.25365
 Zero-point vibrational energy     509757.4 (Joules/Mol)
                                  121.83493 (Kcal/Mol)
 Warning -- explicit consideration of  21 degrees of freedom as
           vibrations may cause significant error
 Vibrational temperatures:     75.20   113.55   149.47   204.97   248.06
          (Kelvin)            263.50   304.16   378.00   398.66   421.81
                              468.40   500.51   511.62   569.98   610.78
                              625.61   664.91   729.31   763.37   864.74
                              893.12   914.11   945.55   953.35  1035.44
                             1079.10  1119.81  1160.39  1173.83  1206.32
                             1216.46  1225.66  1288.65  1309.27  1365.94
                             1369.20  1413.32  1425.09  1487.23  1496.31
                             1572.46  1636.88  1692.63  1723.39  1729.05
                             1787.70  1801.40  1820.09  1864.05  1882.52
                             1925.87  1941.05  1970.88  2054.55  2141.00
                             2194.18  2258.50  2288.87  2374.69  2387.64
                             2425.94  2530.28  4381.28  4428.28  4528.42
                             4553.25  4570.90  4586.00  4611.49  4636.90
                             4659.94  4714.58

 Zero-point correction=                           0.194156 (Hartree/Particle)
 Thermal correction to Energy=                    0.207623
 Thermal correction to Enthalpy=                  0.208567
 Thermal correction to Gibbs Free Energy=         0.154192
 Sum of electronic and zero-point Energies=          -1045.945935
 Sum of electronic and thermal Energies=             -1045.932468
 Sum of electronic and thermal Enthalpies=           -1045.931524
 Sum of electronic and thermal Free Energies=        -1045.985899

                     E (Thermal)             CV                S
                      KCal/Mol        Cal/Mol-Kelvin    Cal/Mol-Kelvin
 Total                  130.285             53.469            114.442
 Electronic               0.000              0.000              0.000
 Translational            0.889              2.981             42.201
 Rotational               0.889              2.981             32.717
 Vibrational            128.508             47.507             39.524
 Vibration     1          0.596              1.977              4.730
 Vibration     2          0.600              1.963              3.918
 Vibration     3          0.605              1.946              3.380
 Vibration     4          0.616              1.911              2.771
 Vibration     5          0.626              1.876              2.409
 Vibration     6          0.631              1.863              2.296
 Vibration     7          0.643              1.823              2.032
 Vibration     8          0.670              1.741              1.644
 Vibration     9          0.678              1.716              1.552
 Vibration    10          0.688              1.686              1.456
 Vibration    11          0.710              1.624              1.282
 Vibration    12          0.725              1.580              1.176
 Vibration    13          0.731              1.564              1.141
 Vibration    14          0.763              1.478              0.977
 Vibration    15          0.787              1.417              0.877
 Vibration    16          0.795              1.394              0.843
 Vibration    17          0.820              1.334              0.760
 Vibration    18          0.862              1.235              0.641
 Vibration    19          0.886              1.182              0.586
 Vibration    20          0.959              1.030              0.448
 Vibration    21          0.981              0.988              0.415

 Optimization completed.
    -- Stationary point found.
 Normal termination of Gaussian 16 at Sun May 28 09:59:25 2023.
