 Gaussian 16, Revision A.03,
 Gaussian 16:  ES64L-G16RevA.03 25-Dec-2016

 -----------------------------
 # opt freq b3lyp/6-31g(2df,p)
 -----------------------------

 -------------------
 Title Card Required
 -------------------
 Symbolic Z-matrix:
 Charge =  0 Multiplicity = 1

 SCF Done:  E(RB3LYP) =  -773.366683537     A.U. after   20 cycles
 SCF Done:  E(RB3LYP) =  -773.400464530     A.U. after   17 cycles
 SCF Done:  E(RB3LYP) =  -773.423516401     A.U. after   14 cycles
 SCF Done:  E(RB3LYP) =  -773.428225934     A.U. after   13 cycles
 SCF Done:  E(RB3LYP) =  -773.431279813     A.U. after   13 cycles
 SCF Done:  E(RB3LYP) =  -773.434589715     A.U. after   13 cycles
 SCF Done:  E(RB3LYP) =  -773.436636242     A.U. after   14 cycles
 SCF Done:  E(RB3LYP) =  -773.438795497     A.U. after   12 cycles
 SCF Done:  E(RB3LYP) =  -773.440243842     A.U. after   13 cycles
 SCF Done:  E(RB3LYP) =  -773.440706238     A.U. after   13 cycles
 SCF Done:  E(RB3LYP) =  -773.441296373     A.U. after   11 cycles
 SCF Done:  E(RB3LYP) =  -773.441379393     A.U. after   11 cycles
 SCF Done:  E(RB3LYP) =  -773.441434317     A.U. after   11 cycles
 SCF Done:  E(RB3LYP) =  -773.441471574     A.U. after   12 cycles
 SCF Done:  E(RB3LYP) =  -773.441481400     A.U. after   11 cycles
 SCF Done:  E(RB3LYP) =  -773.441483022     A.U. after    9 cycles
 SCF Done:  E(RB3LYP) =  -773.441483403     A.U. after    8 cycles
 SCF Done:  E(RB3LYP) =  -773.441483460     A.U. after    7 cycles
 SCF Done:  E(RB3LYP) =  -773.441483496     A.U. after    7 cycles
 Optimization completed.
    -- Stationary point found.
 Normal termination of Gaussian 16 at Sat May 27 21:39:38 2023.

 ----------------------------------------------------------------------
 #N Geom=AllCheck Guess=TCheck SCRF=Check GenChk RB3LYP/6-31G(2df,p) Fr
 eq
 ----------------------------------------------------------------------

 Structure from the checkpoint file:  "OdC1CCC[C]CCCCCCCCOOC1.chk"
 -------------------
 Title Card Required
 -------------------
 Charge =  0 Multiplicity = 1

                         Standard orientation:
 ---------------------------------------------------------------------
 Center     Atomic      Atomic             Coordinates (Angstroms)
 Number     Number       Type             X           Y           Z
 ---------------------------------------------------------------------
      1          8           0        4.454164    1.004499    0.584400
      2          6           0        3.429879    0.643909    0.055735
      3          6           0        2.473418    1.584269   -0.644545
      4          6           0        1.331725    1.991312    0.311434
      5          6           0        0.164904    2.673813   -0.418653
      6          6           0       -0.937521    3.127682    0.461963
      7          6           0       -2.254834    2.915659   -0.162200
      8          6           0       -2.572347    1.521705    0.503172
      9          6           0       -3.538659    0.683044   -0.346945
     10          6           0       -3.856213   -0.698694    0.261904
     11          6           0       -2.944590   -1.859544   -0.173709
     12          6           0       -1.462963   -1.779548    0.227826
     13          6           0       -0.735400   -3.100210   -0.055133
     14          6           0        0.746471   -3.154937    0.315968
     15          8           0        1.608319   -2.471138   -0.592054
     16          8           0        1.714282   -1.078109   -0.183920
     17          6           0        3.090010   -0.854883    0.069633
     18          1           0        2.047781    1.081653   -1.519536
     19          1           0        3.035011    2.464536   -0.969980
     20          1           0        1.712831    2.646003    1.100080
     21          1           0        0.943725    1.094731    0.806273
     22          1           0       -0.131579    2.083561   -1.308391
     23          1           0        0.503066    3.654066   -0.815009
     24          1           0       -2.274954    2.798421   -1.260219
     25          1           0       -3.024756    3.628712    0.145674
     26          1           0       -2.991315    1.699139    1.496575
     27          1           0       -1.650282    0.952381    0.665755
     28          1           0       -3.129046    0.555301   -1.356896
     29          1           0       -4.467456    1.253531   -0.467723
     30          1           0       -4.881487   -0.971318   -0.015377
     31          1           0       -3.856245   -0.622839    1.357918
     32          1           0       -3.010138   -1.971203   -1.265088
     33          1           0       -3.364044   -2.785035    0.244000
     34          1           0       -1.380765   -1.544584    1.298248
     35          1           0       -0.960024   -0.968115   -0.308519
     36          1           0       -0.824956   -3.356805   -1.118495
     37          1           0       -1.236596   -3.907307    0.497917
     38          1           0        1.098031   -4.192871    0.256677
     39          1           0        0.930418   -2.791757    1.334236
     40          1           0        3.685461   -1.317358   -0.730107
     41          1           0        3.409912   -1.286311    1.025875
 ---------------------------------------------------------------------

 SCF Done:  E(RB3LYP) =  -773.441483496     A.U. after    1 cycles

 The electronic state is 1-A.
 Alpha  occ. eigenvalues --  -19.20249 -19.19731 -19.13250 -10.27438 -10.24062
 Alpha  occ. eigenvalues --  -10.23840 -10.20033 -10.19632 -10.18981 -10.18941
 Alpha  occ. eigenvalues --  -10.18931 -10.18914 -10.18741 -10.18572 -10.18507
 Alpha  occ. eigenvalues --  -10.18430 -10.18370  -1.12224  -1.04452  -0.93684
 Alpha  occ. eigenvalues --   -0.82810  -0.80938  -0.79583  -0.76463  -0.74307
 Alpha  occ. eigenvalues --   -0.70270  -0.70000  -0.65720  -0.62373  -0.60107
 Alpha  occ. eigenvalues --   -0.58733  -0.57382  -0.54618  -0.52449  -0.52159
 Alpha  occ. eigenvalues --   -0.49458  -0.49098  -0.47500  -0.47424  -0.45630
 Alpha  occ. eigenvalues --   -0.44971  -0.44007  -0.43608  -0.43144  -0.42377
 Alpha  occ. eigenvalues --   -0.41650  -0.40791  -0.39971  -0.38988  -0.37948
 Alpha  occ. eigenvalues --   -0.37384  -0.36714  -0.36580  -0.35824  -0.35185
 Alpha  occ. eigenvalues --   -0.34465  -0.34119  -0.33972  -0.32751  -0.32394
 Alpha  occ. eigenvalues --   -0.31564  -0.31001  -0.29466  -0.25786  -0.24604
 Alpha  occ. eigenvalues --   -0.19212
 Alpha virt. eigenvalues --   -0.05225  -0.02000   0.01966   0.07027   0.08822
 Alpha virt. eigenvalues --    0.08947   0.10063   0.10608   0.11421   0.11498
 Alpha virt. eigenvalues --    0.12783   0.13260   0.13683   0.13878   0.14026

 Mulliken charges:
               1
     1  O   -0.299164
     2  C    0.331109
     3  C   -0.298785
     4  C   -0.178186
     5  C   -0.190358
     6  C   -0.108258
     7  C   -0.219554
     8  C   -0.168160
     9  C   -0.189556
    10  C   -0.218658
    11  C   -0.172538
    12  C   -0.174067
    13  C   -0.188634
    14  C   -0.061311
    15  O   -0.180339
    16  O   -0.195969
    17  C   -0.116396
    18  H    0.118450
    19  H    0.117138
    20  H    0.127326
    21  H    0.122439
    22  H    0.080190
    23  H    0.136152
    24  H    0.081825
    25  H    0.107473
    26  H    0.125583
    27  H    0.127996
    28  H    0.099823
    29  H    0.101167
    30  H    0.096538
    31  H    0.094824
    32  H    0.095834
    33  H    0.091415
    34  H    0.092119
    35  H    0.120538
    36  H    0.107424
    37  H    0.095960
    38  H    0.115215
    39  H    0.107927
    40  H    0.140594
    41  H    0.124873
 Sum of Mulliken charges =  -0.00000

 Dipole moment (field-independent basis, Debye):
    X=             -2.9351    Y=             -2.3805    Z=             -1.3742  Tot=              4.0211
 Quadrupole moment (field-independent basis, Debye-Ang):
   XX=           -113.6374   YY=           -104.1235   ZZ=           -106.2738
   XY=             -3.0816   XZ=             -2.9908   YZ=             -9.4474

  Exact polarizability: 194.629   6.936 179.791   2.291   0.058 125.952
 Approx polarizability: 248.564  14.178 242.931   5.334   4.921 213.477

                      1                      2                      3
                      A                      A                      A
 Frequencies --     21.8456                50.1259                55.1863
 Red. masses --      4.6846                 4.1735                 4.7916
 Frc consts  --      0.0013                 0.0062                 0.0086
 IR Inten    --      0.8587                 0.8003                 0.2186

                      4                      5                      6
                      A                      A                      A
 Frequencies --     67.6583                73.5785                83.2847
 Red. masses --      2.9768                 3.3434                 2.7263
 Frc consts  --      0.0080                 0.0107                 0.0111
 IR Inten    --      1.1183                 0.9145                 6.1587

                      7                      8                      9
                      A                      A                      A
 Frequencies --    106.4920               117.7392               132.5219
 Red. masses --      3.4857                 2.8484                 2.2043
 Frc consts  --      0.0233                 0.0233                 0.0228
 IR Inten    --      0.3051                 0.8781                 0.5189

                     10                     11                     12
                      A                      A                      A
 Frequencies --    139.0624               151.1463               191.0984
 Red. masses --      2.1437                 2.9341                 3.3136
 Frc consts  --      0.0244                 0.0395                 0.0713
 IR Inten    --      0.3736                 1.0695                 5.5825

                     13                     14                     15
                      A                      A                      A
 Frequencies --    198.2446               219.3911               234.7812
 Red. masses --      2.2464                 3.6631                 3.1540
 Frc consts  --      0.0520                 0.1039                 0.1024
 IR Inten    --      3.3093                 1.3190                 0.8319

                     16                     17                     18
                      A                      A                      A
 Frequencies --    257.8347               289.9738               342.1478
 Red. masses --      2.7882                 2.4944                 3.1472
 Frc consts  --      0.1092                 0.1236                 0.2171
 IR Inten    --      0.1256                 1.6265                 3.6329

                     19                     20                     21
                      A                      A                      A
 Frequencies --    353.8514               364.4170               394.1674
 Red. masses --      4.1286                 3.3998                 3.1165
 Frc consts  --      0.3046                 0.2660                 0.2853
 IR Inten    --      2.9112                 6.2360                 0.7755

                     22                     23                     24
                      A                      A                      A
 Frequencies --    404.2402               458.4064               475.2507
 Red. masses --      3.5006                 2.7796                 3.0843
 Frc consts  --      0.3370                 0.3441                 0.4104
 IR Inten    --      7.2100                 2.1365                 2.0794

                     25                     26                     27
                      A                      A                      A
 Frequencies --    485.5864               502.0883               541.5662
 Red. masses --      2.3645                 2.3708                 2.9347
 Frc consts  --      0.3285                 0.3521                 0.5071
 IR Inten    --      3.9940                10.0309                19.1191

                     28                     29                     30
                      A                      A                      A
 Frequencies --    625.5145               717.1474               731.0108
 Red. masses --      3.3829                 1.2624                 1.1593
 Frc consts  --      0.7799                 0.3825                 0.3650
 IR Inten    --      1.7038                12.1319                 1.4735

                     31                     32                     33
                      A                      A                      A
 Frequencies --    748.9817               770.0629               790.4484
 Red. masses --      1.2096                 1.6463                 1.8577
 Frc consts  --      0.3998                 0.5752                 0.6839
 IR Inten    --      2.9170                 7.0010                 6.7687

                     34                     35                     36
                      A                      A                      A
 Frequencies --    811.1214               829.7815               847.8895
 Red. masses --      1.9839                 2.1951                 2.3101
 Frc consts  --      0.7690                 0.8905                 0.9785
 IR Inten    --      2.5341                 0.2609                 3.6923

                     37                     38                     39
                      A                      A                      A
 Frequencies --    877.5579               891.2339               906.7702
 Red. masses --      2.5147                 2.8727                 2.1539
 Frc consts  --      1.1410                 1.3444                 1.0435
 IR Inten    --     10.7478                 9.6653                12.7633

                     40                     41                     42
                      A                      A                      A
 Frequencies --    910.6350               940.4960               951.3157
 Red. masses --      1.6249                 2.7871                 2.3775
 Frc consts  --      0.7939                 1.4525                 1.2677
 IR Inten    --      2.1522                14.4221                 2.4572

                     43                     44                     45
                      A                      A                      A
 Frequencies --    974.7121               998.5193              1010.2962
 Red. masses --      2.1091                 2.3468                 2.1550
 Frc consts  --      1.1806                 1.3786                 1.2960
 IR Inten    --      2.7931                 7.5460                 4.5301

                     46                     47                     48
                      A                      A                      A
 Frequencies --   1039.4985              1042.5408              1044.3076
 Red. masses --      2.5115                 2.4415                 2.0294
 Frc consts  --      1.5989                 1.5635                 1.3040
 IR Inten    --      5.7700                13.9006                22.2318

                     49                     50                     51
                      A                      A                      A
 Frequencies --   1059.5301              1071.5935              1078.7538
 Red. masses --      2.4119                 2.1838                 2.5694
 Frc consts  --      1.5953                 1.4775                 1.7617
 IR Inten    --      7.0263                38.7839                15.9101

                     52                     53                     54
                      A                      A                      A
 Frequencies --   1093.9061              1098.4625              1108.5330
 Red. masses --      2.4379                 2.3262                 2.3667
 Frc consts  --      1.7188                 1.6537                 1.7135
 IR Inten    --     13.8421                27.8870                 1.5153

                     55                     56                     57
                      A                      A                      A
 Frequencies --   1134.5429              1154.8995              1182.4373
 Red. masses --      2.0395                 1.8863                 1.7128
 Frc consts  --      1.5467                 1.4824                 1.4109
 IR Inten    --      5.0158                 5.5400                13.3314

                     58                     59                     60
                      A                      A                      A
 Frequencies --   1191.6483              1208.0327              1218.5250
 Red. masses --      1.3900                 1.5293                 1.5267
 Frc consts  --      1.1630                 1.3149                 1.3356
 IR Inten    --      4.3744                15.7376                 4.5440

                     61                     62                     63
                      A                      A                      A
 Frequencies --   1236.8132              1249.9311              1251.9360
 Red. masses --      1.2197                 1.4385                 1.5983
 Frc consts  --      1.0992                 1.3242                 1.4760
 IR Inten    --     13.9333                28.2484                18.1964

                     64                     65                     66
                      A                      A                      A
 Frequencies --   1259.1574              1275.4134              1286.4857
 Red. masses --      1.3056                 1.2922                 1.2342
 Frc consts  --      1.2196                 1.2384                 1.2035
 IR Inten    --      3.9429                 1.1287                 1.6904

                     67                     68                     69
                      A                      A                      A
 Frequencies --   1310.4901              1313.8174              1319.8641
 Red. masses --      1.2106                 1.2438                 1.1896
 Frc consts  --      1.2250                 1.2650                 1.2210
 IR Inten    --      4.9804                22.4135                 4.3876

                     70                     71                     72
                      A                      A                      A
 Frequencies --   1326.7464              1333.6381              1344.0250
 Red. masses --      1.1524                 1.0850                 1.1898
 Frc consts  --      1.1951                 1.1370                 1.2663
 IR Inten    --      1.7104                 0.2321                 1.5185

                     73                     74                     75
                      A                      A                      A
 Frequencies --   1352.3943              1362.7341              1376.8722
 Red. masses --      1.3805                 1.3290                 1.3708
 Frc consts  --      1.4877                 1.4541                 1.5311
 IR Inten    --      4.0382                10.9986                 5.1744

                     76                     77                     78
                      A                      A                      A
 Frequencies --   1380.9824              1382.9288              1391.0933
 Red. masses --      1.4052                 1.4184                 1.3812
 Frc consts  --      1.5790                 1.5983                 1.5747
 IR Inten    --      1.3594                 7.3886                 4.4642

                     79                     80                     81
                      A                      A                      A
 Frequencies --   1398.4249              1400.2121              1403.7021
 Red. masses --      1.3027                 1.0974                 1.5077
 Frc consts  --      1.5010                 1.2677                 1.7503
 IR Inten    --     37.8082                 8.7584                 3.5291

                     82                     83                     84
                      A                      A                      A
 Frequencies --   1455.7938              1469.3527              1469.7599
 Red. masses --      1.0928                 1.0870                 1.1034
 Frc consts  --      1.3645                 1.3827                 1.4044
 IR Inten    --      4.2013                 1.9822                 6.2467

                     85                     86                     87
                      A                      A                      A
 Frequencies --   1477.9658              1478.8628              1483.3370
 Red. masses --      1.0774                 1.0741                 1.0716
 Frc consts  --      1.3866                 1.3841                 1.3892
 IR Inten    --      0.5362                14.2443                 3.8429

                     88                     89                     90
                      A                      A                      A
 Frequencies --   1488.3869              1493.4601              1496.6246
 Red. masses --      1.0895                 1.0891                 1.0880
 Frc consts  --      1.4220                 1.4312                 1.4359
 IR Inten    --      3.0705                 1.9595                 3.1946

                     91                     92                     93
                      A                      A                      A
 Frequencies --   1504.7531              1515.2646              1815.0189
 Red. masses --      1.0976                 1.1307                11.5995
 Frc consts  --      1.4642                 1.5296                22.5140
 IR Inten    --      3.1816                 2.8522               202.4785

                     94                     95                     96
                      A                      A                      A
 Frequencies --   2894.1866              2933.7847              2942.0578
 Red. masses --      1.0620                 1.0687                 1.0909
 Frc consts  --      5.2410                 5.4193                 5.5632
 IR Inten    --     38.5084                60.5432                20.5437

                     97                     98                     99
                      A                      A                      A
 Frequencies --   3001.8298              3007.1078              3011.1050
 Red. masses --      1.0601                 1.0608                 1.0567
 Frc consts  --      5.6284                 5.6516                 5.6450
 IR Inten    --      6.1361                 4.3814                25.0878

                    100                    101                    102
                      A                      A                      A
 Frequencies --   3011.5976              3014.5298              3020.4223
 Red. masses --      1.0665                 1.0688                 1.0610
 Frc consts  --      5.6990                 5.7226                 5.7028
 IR Inten    --     12.4072                48.9074                13.8099

                    103                    104                    105
                      A                      A                      A
 Frequencies --   3022.8033              3036.4835              3044.2236
 Red. masses --      1.0582                 1.0948                 1.0573
 Frc consts  --      5.6969                 5.9474                 5.7732
 IR Inten    --     42.2700                18.3314                 2.1778

                    106                    107                    108
                      A                      A                      A
 Frequencies --   3048.0698              3050.8777              3054.4671
 Red. masses --      1.0736                 1.0933                 1.0916
 Frc consts  --      5.8771                 5.9956                 6.0002
 IR Inten    --      7.0445                13.0477                22.3725

                    109                    110                    111
                      A                      A                      A
 Frequencies --   3054.5987              3060.4172              3061.1762
 Red. masses --      1.0705                 1.0889                 1.1033
 Frc consts  --      5.8851                 6.0092                 6.0914
 IR Inten    --     33.5977                49.5902                20.8142

                    112                    113                    114
                      A                      A                      A
 Frequencies --   3072.0715              3072.8514              3083.5655
 Red. masses --      1.0901                 1.1047                 1.0995
 Frc consts  --      6.0613                 6.1460                 6.1598
 IR Inten    --     14.5213                30.2063                49.7813

                    115                    116                    117
                      A                      A                      A
 Frequencies --   3093.6804              3105.1738              3113.9610
 Red. masses --      1.1015                 1.0999                 1.1054
 Frc consts  --      6.2114                 6.2485                 6.3155
 IR Inten    --      1.1724                45.6281                30.1840

 - Thermochemistry -
 -------------------
 Temperature   298.150 Kelvin.  Pressure   1.00000 Atm.
 Atom     1 has atomic number  8 and mass  15.99491

 Molecular mass:   240.17254 amu.
 Principal axes and moments of inertia in atomic units:
                           1         2         3
     Eigenvalues --  3819.509175706.083309136.56311
           X            0.99999   0.00428  -0.00096
           Y           -0.00430   0.99992  -0.01153
           Z            0.00091   0.01153   0.99993
 This molecule is an asymmetric top.
 Rotational symmetry number  1.
 Warning -- assumption of classical behavior for rotation
           may cause significant error
 Rotational temperatures (Kelvin)      0.02268     0.01518     0.00948
 Rotational constants (GHZ):           0.47251     0.31628     0.19753
 Zero-point vibrational energy     943193.7 (Joules/Mol)
                                  225.42871 (Kcal/Mol)
 Warning -- explicit consideration of  27 degrees of freedom as
           vibrations may cause significant error
 Vibrational temperatures:     31.43    72.12    79.40    97.35   105.86
          (Kelvin)            119.83   153.22   169.40   190.67   200.08
                              217.47   274.95   285.23   315.65   337.80
                              370.97   417.21   492.27   509.11   524.31
                              567.12   581.61   659.54   683.78   698.65
                              722.39   779.19   899.98  1031.82  1051.76
                             1077.62  1107.95  1137.28  1167.02  1193.87
                             1219.92  1262.61  1282.29  1304.64  1310.20
                             1353.16  1368.73  1402.39  1436.65  1453.59
                             1495.61  1499.98  1502.53  1524.43  1541.78
                             1552.09  1573.89  1580.44  1594.93  1632.35
                             1661.64  1701.26  1714.52  1738.09  1753.19
                             1779.50  1798.37  1801.26  1811.65  1835.04
                             1850.97  1885.50  1890.29  1898.99  1908.89
                             1918.81  1933.75  1945.79  1960.67  1981.01
                             1986.93  1989.73  2001.47  2012.02  2014.59
                             2019.61  2094.56  2114.07  2114.66  2126.46
                             2127.75  2134.19  2141.46  2148.76  2153.31
                             2165.00  2180.13  2611.41  4164.09  4221.06
                             4232.96  4318.96  4326.56  4332.31  4333.02
                             4337.24  4345.71  4349.14  4368.82  4379.96
                             4385.49  4389.53  4394.70  4394.89  4403.26
                             4404.35  4420.03  4421.15  4436.56  4451.12
                             4467.65  4480.30

 Zero-point correction=                           0.359244 (Hartree/Particle)
 Thermal correction to Energy=                    0.378198
 Thermal correction to Enthalpy=                  0.379142
 Thermal correction to Gibbs Free Energy=         0.310818
 Sum of electronic and zero-point Energies=           -773.082240
 Sum of electronic and thermal Energies=              -773.063285
 Sum of electronic and thermal Enthalpies=            -773.062341
 Sum of electronic and thermal Free Energies=         -773.130666

                     E (Thermal)             CV                S
                      KCal/Mol        Cal/Mol-Kelvin    Cal/Mol-Kelvin
 Total                  237.323             70.451            143.800
 Electronic               0.000              0.000              0.000
 Translational            0.889              2.981             42.330
 Rotational               0.889              2.981             33.654
 Vibrational            235.545             64.489             67.817
 Vibration     1          0.593              1.985              6.459
 Vibration     2          0.595              1.978              4.812
 Vibration     3          0.596              1.976              4.622
 Vibration     4          0.598              1.970              4.220
 Vibration     5          0.599              1.966              4.055
 Vibration     6          0.600              1.961              3.812
 Vibration     7          0.605              1.944              3.332
 Vibration     8          0.608              1.935              3.137
 Vibration     9          0.613              1.921              2.909
 Vibration    10          0.615              1.914              2.817
 Vibration    11          0.619              1.901              2.658
 Vibration    12          0.634              1.852              2.217
 Vibration    13          0.637              1.842              2.149
 Vibration    14          0.647              1.812              1.964
 Vibration    15          0.655              1.788              1.842
 Vibration    16          0.667              1.750              1.676
 Vibration    17          0.686              1.692              1.474
 Vibration    18          0.721              1.591              1.202
 Vibration    19          0.730              1.567              1.149
 Vibration    20          0.738              1.546              1.103
 Vibration    21          0.761              1.483              0.984
 Vibration    22          0.769              1.461              0.947
 Vibration    23          0.816              1.342              0.771
 Vibration    24          0.832              1.305              0.723
 Vibration    25          0.842              1.282              0.695
 Vibration    26          0.857              1.245              0.653
 Vibration    27          0.897              1.158              0.562

                           ! Non-Optimized Parameters !
 Normal termination of Gaussian 16 at Sun May 28 01:48:44 2023.
