 Gaussian 16, Revision A.03,
 Gaussian 16:  ES64L-G16RevA.03 25-Dec-2016

 -----------------------------
 # opt freq b3lyp/6-31g(2df,p)
 -----------------------------

 -------------------
 Title Card Required
 -------------------
 Symbolic Z-matrix:
 Charge =  0 Multiplicity = 1

 SCF Done:  E(RB3LYP) =  -576.584966979     A.U. after   13 cycles
 SCF Done:  E(RB3LYP) =  -576.608612379     A.U. after   13 cycles
 SCF Done:  E(RB3LYP) =  -576.622781463     A.U. after   13 cycles
 SCF Done:  E(RB3LYP) =  -576.632104849     A.U. after   12 cycles
 SCF Done:  E(RB3LYP) =  -576.639382685     A.U. after   12 cycles
 SCF Done:  E(RB3LYP) =  -576.644385345     A.U. after   12 cycles
 SCF Done:  E(RB3LYP) =  -576.648569888     A.U. after   11 cycles
 SCF Done:  E(RB3LYP) =  -576.651968486     A.U. after   11 cycles
 SCF Done:  E(RB3LYP) =  -576.655970470     A.U. after   12 cycles
 SCF Done:  E(RB3LYP) =  -576.658152141     A.U. after   11 cycles
 SCF Done:  E(RB3LYP) =  -576.660986714     A.U. after   12 cycles
 SCF Done:  E(RB3LYP) =  -576.661377927     A.U. after   10 cycles
 SCF Done:  E(RB3LYP) =  -576.661591880     A.U. after   11 cycles
 SCF Done:  E(RB3LYP) =  -576.661636254     A.U. after    9 cycles
 SCF Done:  E(RB3LYP) =  -576.661639269     A.U. after    9 cycles
 SCF Done:  E(RB3LYP) =  -576.661645861     A.U. after    8 cycles
 SCF Done:  E(RB3LYP) =  -576.661647562     A.U. after    7 cycles
 SCF Done:  E(RB3LYP) =  -576.661647907     A.U. after    6 cycles
 SCF Done:  E(RB3LYP) =  -576.661647992     A.U. after    6 cycles
 Optimization completed.
    -- Stationary point found.
 Normal termination of Gaussian 16 at Sat May 27 19:36:51 2023.

 ----------------------------------------------------------------------
 #N Geom=AllCheck Guess=TCheck SCRF=Check GenChk RB3LYP/6-31G(2df,p) Fr
 eq
 ----------------------------------------------------------------------

 Structure from the checkpoint file:  "OdC1CCCNCCC2CCN1C2.chk"
 -------------------
 Title Card Required
 -------------------
 Charge =  0 Multiplicity = 1

                         Standard orientation:
 ---------------------------------------------------------------------
 Center     Atomic      Atomic             Coordinates (Angstroms)
 Number     Number       Type             X           Y           Z
 ---------------------------------------------------------------------
      1          8           0        0.430006    2.483691   -1.063462
      2          6           0        0.225785    1.795338   -0.072774
      3          6           0       -1.064913    1.972818    0.737382
      4          6           0       -2.103190    0.820438    0.657674
      5          6           0       -2.146864    0.055793   -0.685719
      6          7           0       -2.313063   -1.389181   -0.495384
      7          6           0       -1.200884   -2.124186    0.121743
      8          6           0        0.222102   -1.914405   -0.473712
      9          6           0        1.321721   -1.468731    0.516758
     10          6           0        2.575064   -0.967135   -0.238326
     11          6           0        2.255689    0.513457   -0.571957
     12          7           0        1.144084    0.863228    0.327719
     13          6           0        0.966626   -0.198284    1.311848
     14          1           0       -1.497672    2.888018    0.328467
     15          1           0       -0.826736    2.170752    1.789029
     16          1           0       -3.089522    1.241639    0.874932
     17          1           0       -1.929980    0.099699    1.459482
     18          1           0       -1.257617    0.313811   -1.281708
     19          1           0       -3.002358    0.394560   -1.278881
     20          1           0       -2.527590   -1.809546   -1.392764
     21          1           0       -1.470932   -3.183451    0.065922
     22          1           0       -1.187637   -1.892706    1.192818
     23          1           0        0.161282   -1.179584   -1.283163
     24          1           0        0.563444   -2.841042   -0.949145
     25          1           0        1.562641   -2.292721    1.196598
     26          1           0        2.787616   -1.550808   -1.137670
     27          1           0        3.455083   -1.031042    0.409316
     28          1           0        1.930391    0.669903   -1.603092
     29          1           0        3.119085    1.166526   -0.406625
     30          1           0       -0.031245   -0.188916    1.738553
     31          1           0        1.677742   -0.073566    2.141782
 ---------------------------------------------------------------------

 SCF Done:  E(RB3LYP) =  -576.661647992     A.U. after    1 cycles

 The electronic state is 1-A.
 Alpha  occ. eigenvalues --  -19.08745 -14.34599 -14.31181 -10.26483 -10.21887
 Alpha  occ. eigenvalues --  -10.20995 -10.20675 -10.20214 -10.19713 -10.18898
 Alpha  occ. eigenvalues --  -10.18549 -10.18477 -10.18234  -1.01930  -0.93441
 Alpha  occ. eigenvalues --   -0.89729  -0.80711  -0.77538  -0.74852  -0.71899
 Alpha  occ. eigenvalues --   -0.67762  -0.65575  -0.60721  -0.58393  -0.56606
 Alpha  occ. eigenvalues --   -0.54598  -0.50999  -0.48690  -0.47458  -0.46241
 Alpha  occ. eigenvalues --   -0.44936  -0.44420  -0.43188  -0.42207  -0.40793
 Alpha  occ. eigenvalues --   -0.39561  -0.38763  -0.37740  -0.37453  -0.36376
 Alpha  occ. eigenvalues --   -0.35964  -0.34640  -0.34047  -0.33163  -0.33001
 Alpha  occ. eigenvalues --   -0.32456  -0.31621  -0.23338  -0.23196  -0.21681
 Alpha virt. eigenvalues --    0.03348   0.07208   0.08085   0.09117   0.10654
 Alpha virt. eigenvalues --    0.10951   0.11875   0.13087   0.13423   0.14835
 Alpha virt. eigenvalues --    0.15921   0.16193   0.16290   0.17275   0.18194

 Mulliken charges:
               1
     1  O   -0.389763
     2  C    0.369966
     3  C   -0.314559
     4  C   -0.195706
     5  C   -0.167246
     6  N   -0.285185
     7  C   -0.181336
     8  C   -0.205513
     9  C   -0.006293
    10  C   -0.245520
    11  C   -0.161282
    12  N   -0.060735
    13  C   -0.187454
    14  H    0.128877
    15  H    0.108717
    16  H    0.106821
    17  H    0.113167
    18  H    0.108730
    19  H    0.101498
    20  H    0.215917
    21  H    0.103026
    22  H    0.102828
    23  H    0.113259
    24  H    0.095646
    25  H    0.071150
    26  H    0.104436
    27  H    0.101553
    28  H    0.132559
    29  H    0.112507
    30  H    0.109009
    31  H    0.100927
 Sum of Mulliken charges =  -0.00000

 Dipole moment (field-independent basis, Debye):
    X=              0.4761    Y=             -3.0105    Z=              1.4673  Tot=              3.3827
 Quadrupole moment (field-independent basis, Debye-Ang):
   XX=            -78.3909   YY=            -85.7480   ZZ=            -78.4546
   XY=             -4.4278   XZ=              2.7754   YZ=              6.9278

  Exact polarizability: 127.476  -6.591 123.302   0.708  -2.671 102.482
 Approx polarizability: 171.108  -8.080 176.166   1.820 -13.921 170.939

                      1                      2                      3
                      A                      A                      A
 Frequencies --     73.1201               110.1036               156.6194
 Red. masses --      4.2948                 3.3165                 2.2537
 Frc consts  --      0.0135                 0.0237                 0.0326
 IR Inten    --      2.6944                 2.7424                 0.8107

                      4                      5                      6
                      A                      A                      A
 Frequencies --    173.7189               192.6210               227.2317
 Red. masses --      3.0384                 2.6079                 2.9761
 Frc consts  --      0.0540                 0.0570                 0.0905
 IR Inten    --      0.1654                 0.6425                 2.6528

                      7                      8                      9
                      A                      A                      A
 Frequencies --    233.3154               294.8245               314.2491
 Red. masses --      3.1436                 2.4231                 2.1129
 Frc consts  --      0.1008                 0.1241                 0.1229
 IR Inten    --      4.6218                 1.3633                 0.6699

                     10                     11                     12
                      A                      A                      A
 Frequencies --    351.0621               362.3854               388.0135
 Red. masses --      2.4039                 2.6672                 2.9372
 Frc consts  --      0.1746                 0.2064                 0.2605
 IR Inten    --      1.3871                 4.1876                 2.9301

                     13                     14                     15
                      A                      A                      A
 Frequencies --    434.5317               448.0992               504.5350
 Red. masses --      2.1456                 2.6779                 3.1319
 Frc consts  --      0.2387                 0.3168                 0.4697
 IR Inten    --      8.5775                 3.7828                10.6636

                     16                     17                     18
                      A                      A                      A
 Frequencies --    549.1400               583.4982               684.1794
 Red. masses --      4.2482                 3.4774                 1.8127
 Frc consts  --      0.7548                 0.6976                 0.4999
 IR Inten    --      4.9181                 6.0471                16.3743

                     19                     20                     21
                      A                      A                      A
 Frequencies --    707.4964               728.1131               750.8152
 Red. masses --      2.2004                 1.9598                 1.9607
 Frc consts  --      0.6489                 0.6121                 0.6512
 IR Inten    --     16.8759                59.6396                25.0756

                     22                     23                     24
                      A                      A                      A
 Frequencies --    776.6086               823.7932               833.5236
 Red. masses --      2.7931                 1.6123                 1.8719
 Frc consts  --      0.9925                 0.6446                 0.7662
 IR Inten    --      8.1514                 4.8835                 0.7512

                     25                     26                     27
                      A                      A                      A
 Frequencies --    852.1680               892.1941               914.3094
 Red. masses --      2.6800                 2.1864                 2.4466
 Frc consts  --      1.1467                 1.0254                 1.2050
 IR Inten    --      2.8645                 0.6623                 0.2077

                     28                     29                     30
                      A                      A                      A
 Frequencies --    939.7752               969.9863               972.9958
 Red. masses --      2.2624                 2.3180                 2.2730
 Frc consts  --      1.1773                 1.2850                 1.2679
 IR Inten    --      6.6125                 3.8850                 5.4418

                     31                     32                     33
                      A                      A                      A
 Frequencies --   1003.3838              1005.1770              1018.0608
 Red. masses --      2.1239                 2.1655                 2.6960
 Frc consts  --      1.2598                 1.2891                 1.6463
 IR Inten    --      1.6986                 0.7832                 4.4365

                     34                     35                     36
                      A                      A                      A
 Frequencies --   1050.3739              1056.5212              1066.1875
 Red. masses --      2.0519                 1.8020                 2.7723
 Frc consts  --      1.3338                 1.1851                 1.8568
 IR Inten    --      7.5082                12.4645                 1.0209

                     37                     38                     39
                      A                      A                      A
 Frequencies --   1112.9795              1118.4224              1147.1020
 Red. masses --      1.7644                 1.8212                 2.5005
 Frc consts  --      1.2877                 1.3422                 1.9386
 IR Inten    --      2.6135                 5.0807                46.6647

                     40                     41                     42
                      A                      A                      A
 Frequencies --   1181.2838              1199.1500              1210.7184
 Red. masses --      1.5974                 1.4289                 1.9219
 Frc consts  --      1.3133                 1.2106                 1.6598
 IR Inten    --      9.9302                 6.3584                 5.5637

                     43                     44                     45
                      A                      A                      A
 Frequencies --   1213.7908              1238.6449              1244.2778
 Red. masses --      1.6441                 1.3235                 1.2214
 Frc consts  --      1.4271                 1.1964                 1.1141
 IR Inten    --     15.2892                 6.0970                11.9566

                     46                     47                     48
                      A                      A                      A
 Frequencies --   1257.0969              1269.0905              1290.0273
 Red. masses --      1.2777                 1.3777                 1.1673
 Frc consts  --      1.1896                 1.3074                 1.1445
 IR Inten    --      1.0343                 6.7176                 2.6251

                     49                     50                     51
                      A                      A                      A
 Frequencies --   1323.0578              1324.6148              1329.7782
 Red. masses --      1.1992                 1.2200                 1.3282
 Frc consts  --      1.2368                 1.2612                 1.3838
 IR Inten    --      1.5431                 0.4681                 5.9221

                     52                     53                     54
                      A                      A                      A
 Frequencies --   1339.3866              1353.8938              1360.1034
 Red. masses --      1.2468                 1.3472                 1.4736
 Frc consts  --      1.3178                 1.4549                 1.6061
 IR Inten    --      5.0053                 3.1054                 4.5985

                     55                     56                     57
                      A                      A                      A
 Frequencies --   1372.5025              1384.8054              1397.0124
 Red. masses --      1.4837                 1.3794                 1.2927
 Frc consts  --      1.6467                 1.5586                 1.4865
 IR Inten    --      2.4497                18.2186                 4.0611

                     58                     59                     60
                      A                      A                      A
 Frequencies --   1418.5050              1446.9878              1478.3444
 Red. masses --      1.3460                 3.3608                 1.0825
 Frc consts  --      1.5957                 4.1460                 1.3939
 IR Inten    --     32.3337               156.0186                 2.2573

                     61                     62                     63
                      A                      A                      A
 Frequencies --   1480.5605              1491.6893              1494.1066
 Red. masses --      1.0742                 1.0917                 1.1179
 Frc consts  --      1.3874                 1.4313                 1.4704
 IR Inten    --      7.0378                 4.4336                12.7391

                     64                     65                     66
                      A                      A                      A
 Frequencies --   1499.6884              1509.5731              1517.4491
 Red. masses --      1.0914                 1.2026                 1.0848
 Frc consts  --      1.4462                 1.6147                 1.4718
 IR Inten    --     11.4860                 2.1440                 0.3628

                     67                     68                     69
                      A                      A                      A
 Frequencies --   1526.0203              1532.6351              1732.9940
 Red. masses --      1.0812                 1.0959                10.3187
 Frc consts  --      1.4835                 1.5166                18.2586
 IR Inten    --     13.8787                 3.1554               267.0351

                     70                     71                     72
                      A                      A                      A
 Frequencies --   2978.9370              2992.2157              3036.2821
 Red. masses --      1.0715                 1.0758                 1.0660
 Frc consts  --      5.6023                 5.6752                 5.7902
 IR Inten    --     38.3960                53.0306                27.3961

                     73                     74                     75
                      A                      A                      A
 Frequencies --   3037.1545              3041.5717              3042.2922
 Red. masses --      1.0651                 1.0661                 1.0701
 Frc consts  --      5.7885                 5.8107                 5.8356
 IR Inten    --     10.7651                15.8505                 0.3746

                     76                     77                     78
                      A                      A                      A
 Frequencies --   3047.4126              3054.3863              3059.4235
 Red. masses --      1.0737                 1.0815                 1.0702
 Frc consts  --      5.8746                 5.9446                 5.9017
 IR Inten    --     40.8850                22.5017                61.6383

                     79                     80                     81
                      A                      A                      A
 Frequencies --   3067.2899              3070.5978              3083.0255
 Red. masses --      1.0763                 1.0947                 1.0986
 Frc consts  --      5.9664                 6.0810                 6.1521
 IR Inten    --     36.0621                21.2404                64.9454

                     82                     83                     84
                      A                      A                      A
 Frequencies --   3090.4416              3093.0881              3107.9503
 Red. masses --      1.0988                 1.0955                 1.1017
 Frc consts  --      6.1831                 6.1749                 6.2697
 IR Inten    --      2.9924                14.0766                30.2658

                     85                     86                     87
                      A                      A                      A
 Frequencies --   3116.2387              3183.0398              3527.9095
 Red. masses --      1.0973                 1.0857                 1.0742
 Frc consts  --      6.2782                 6.4809                 7.8770
 IR Inten    --     31.0546                11.5288                 0.1080

 - Thermochemistry -
 -------------------
 Temperature   298.150 Kelvin.  Pressure   1.00000 Atm.
 Atom     1 has atomic number  8 and mass  15.99491

 Molecular mass:   182.14191 amu.
 Principal axes and moments of inertia in atomic units:
                           1         2         3
     Eigenvalues --  1857.090062097.045823236.26884
           X            0.99179  -0.12784  -0.00429
           Y            0.12789   0.99162   0.01839
           Z            0.00191  -0.01879   0.99982
 This molecule is an asymmetric top.
 Rotational symmetry number  1.
 Warning -- assumption of classical behavior for rotation
           may cause significant error
 Rotational temperatures (Kelvin)      0.04664     0.04130     0.02676
 Rotational constants (GHZ):           0.97181     0.86061     0.55766
 Zero-point vibrational energy     734915.5 (Joules/Mol)
                                  175.64903 (Kcal/Mol)
 Warning -- explicit consideration of  17 degrees of freedom as
           vibrations may cause significant error
 Vibrational temperatures:    105.20   158.41   225.34   249.94   277.14
          (Kelvin)            326.94   335.69   424.19   452.13   505.10
                              521.39   558.26   625.19   644.71   725.91
                              790.09   839.52   984.38  1017.93  1047.59
                             1080.26  1117.37  1185.25  1199.25  1226.08
                             1283.67  1315.49  1352.13  1395.59  1399.92
                             1443.65  1446.23  1464.76  1511.25  1520.10
                             1534.01  1601.33  1609.16  1650.42  1699.60
                             1725.31  1741.95  1746.37  1782.13  1790.24
                             1808.68  1825.94  1856.06  1903.59  1905.83
                             1913.25  1927.08  1947.95  1956.89  1974.73
                             1992.43  2009.99  2040.91  2081.89  2127.01
                             2130.20  2146.21  2149.69  2157.72  2171.94
                             2183.27  2195.60  2205.12  2493.39  4286.03
                             4305.13  4368.53  4369.79  4376.14  4377.18
                             4384.55  4394.58  4401.83  4413.15  4417.91
                             4435.79  4446.46  4450.26  4471.65  4483.57
                             4579.68  5075.87

 Zero-point correction=                           0.279915 (Hartree/Particle)
 Thermal correction to Energy=                    0.291555
 Thermal correction to Enthalpy=                  0.292499
 Thermal correction to Gibbs Free Energy=         0.243122
 Sum of electronic and zero-point Energies=           -576.381733
 Sum of electronic and thermal Energies=              -576.370093
 Sum of electronic and thermal Enthalpies=            -576.369149
 Sum of electronic and thermal Free Energies=         -576.418526

                     E (Thermal)             CV                S
                      KCal/Mol        Cal/Mol-Kelvin    Cal/Mol-Kelvin
 Total                  182.953             47.654            103.923
 Electronic               0.000              0.000              0.000
 Translational            0.889              2.981             41.505
 Rotational               0.889              2.981             30.911
 Vibrational            181.176             41.693             31.506
 Vibration     1          0.599              1.967              4.068
 Vibration     2          0.606              1.941              3.267
 Vibration     3          0.620              1.895              2.590
 Vibration     4          0.627              1.875              2.395
 Vibration     5          0.635              1.850              2.202
 Vibration     6          0.651              1.800              1.901
 Vibration     7          0.654              1.790              1.853
 Vibration     8          0.689              1.683              1.446
 Vibration     9          0.702              1.646              1.340
 Vibration    10          0.728              1.573              1.161
 Vibration    11          0.736              1.550              1.112
 Vibration    12          0.756              1.496              1.008
 Vibration    13          0.795              1.395              0.844
 Vibration    14          0.807              1.365              0.802
 Vibration    15          0.860              1.240              0.647
 Vibration    16          0.904              1.142              0.546
 Vibration    17          0.940              1.067              0.479

                           ! Non-Optimized Parameters !
 Normal termination of Gaussian 16 at Sat May 27 21:40:36 2023.
