 Gaussian 16, Revision A.03,
 Gaussian 16:  ES64L-G16RevA.03 25-Dec-2016

 -----------------------------
 # opt freq b3lyp/6-31g(2df,p)
 -----------------------------

 -------------------
 Title Card Required
 -------------------
 Symbolic Z-matrix:
 Charge =  0 Multiplicity = 1

 SCF Done:  E(RB3LYP) =  -1166.62268848     A.U. after   38 cycles
 SCF Done:  E(RB3LYP) =  -1166.77447257     A.U. after   35 cycles
 SCF Done:  E(RB3LYP) =  -1166.98284741     A.U. after   30 cycles
 SCF Done:  E(RB3LYP) =  -1167.12461589     A.U. after   23 cycles
 SCF Done:  E(RB3LYP) =  -1167.26710343     A.U. after   21 cycles
 SCF Done:  E(RB3LYP) =  -1167.40262687     A.U. after   20 cycles
 SCF Done:  E(RB3LYP) =  -1167.43683747     A.U. after   21 cycles
 SCF Done:  E(RB3LYP) =  -1167.48531145     A.U. after   20 cycles
 SCF Done:  E(RB3LYP) =  -1167.50940953     A.U. after   18 cycles
 SCF Done:  E(RB3LYP) =  -1167.53333334     A.U. after   16 cycles
 SCF Done:  E(RB3LYP) =  -1167.56030853     A.U. after   10 cycles
 SCF Done:  E(RB3LYP) =  -1167.56032026     A.U. after   10 cycles
 SCF Done:  E(RB3LYP) =  -1167.56032550     A.U. after   10 cycles
 SCF Done:  E(RB3LYP) =  -1167.56032877     A.U. after    9 cycles
 SCF Done:  E(RB3LYP) =  -1167.56033058     A.U. after    9 cycles
 SCF Done:  E(RB3LYP) =  -1167.56033087     A.U. after    8 cycles
 SCF Done:  E(RB3LYP) =  -1167.56033106     A.U. after    8 cycles
 SCF Done:  E(RB3LYP) =  -1167.56033114     A.U. after    8 cycles
 SCF Done:  E(RB3LYP) =  -1167.56033122     A.U. after    8 cycles
 Optimization completed.
    -- Stationary point found.
 Normal termination of Gaussian 16 at Tue May 23 13:19:20 2023.

 ----------------------------------------------------------------------
 #N Geom=AllCheck Guess=TCheck SCRF=Check GenChk RB3LYP/6-31G(2df,p) Fr
 eq
 ----------------------------------------------------------------------

 Structure from the checkpoint file:  "OdC1CdCCdCCdCC2dCCdCC2dS2CdCCdCC2dC1.chk"
 -------------------
 Title Card Required
 -------------------
 Charge =  0 Multiplicity = 1

                         Standard orientation:
 ---------------------------------------------------------------------
 Center     Atomic      Atomic             Coordinates (Angstroms)
 Number     Number       Type             X           Y           Z
 ---------------------------------------------------------------------
      1          8           0        4.310294   -0.290477   -1.278910
      2          6           0        3.537818   -0.803095   -0.492272
      3          6           0        2.922468   -2.117628   -0.725030
      4          6           0        2.060223   -2.697802    0.145966
      5          6           0        0.894154   -3.471010   -0.177758
      6          6           0       -0.163558   -3.206063    0.639281
      7          6           0       -1.504459   -2.878470    0.226429
      8          6           0       -1.973701   -1.725705    0.767029
      9          6           0       -2.911822   -0.772440    0.225285
     10          6           0       -4.188865   -0.902548   -0.280960
     11          6           0       -4.646626    0.386247   -0.714417
     12          6           0       -3.650836    1.323640   -0.515545
     13          6           0       -2.547266    0.641561    0.072631
     14         16           0       -0.932046    1.125594    0.314528
     15          6           0       -0.753111    2.694534   -0.222538
     16          6           0        0.358252    3.573059   -0.182110
     17          6           0        1.685015    3.548143    0.167808
     18          6           0        2.668069    2.580588    0.595083
     19          6           0        2.728397    1.262146    0.636581
     20          6           0        2.992290   -0.011242    0.696330
     21          1           0        3.015232   -2.471125   -1.748574
     22          1           0        2.063275   -2.337317    1.170474
     23          1           0        0.753138   -3.826780   -1.194629
     24          1           0        0.090268   -2.816583    1.624714
     25          1           0       -1.924657   -3.290477   -0.685833
     26          1           0       -1.404644   -1.351236    1.619006
     27          1           0       -4.768903   -1.814890   -0.290658
     28          1           0       -5.627712    0.591276   -1.121925
     29          1           0       -3.702450    2.372513   -0.765944
     30          1           0       -1.654584    3.121419   -0.646982
     31          1           0        0.051621    4.559228   -0.525957
     32          1           0        2.139989    4.532379    0.087540
     33          1           0        3.606389    3.052056    0.895981
     34          1           0        2.754780   -0.549655    1.610874
 ---------------------------------------------------------------------

 SCF Done:  E(RB3LYP) =  -1167.56033122     A.U. after    1 cycles

 The electronic state is 1-A.
 Alpha  occ. eigenvalues --  -88.95181 -19.11259 -10.26652 -10.24451 -10.22125
 Alpha  occ. eigenvalues --  -10.22024 -10.21842 -10.21683 -10.21546 -10.21541
 Alpha  occ. eigenvalues --  -10.21446 -10.20649 -10.20636 -10.20337 -10.20262
 Alpha  occ. eigenvalues --  -10.18898 -10.18597 -10.17856 -10.17604 -10.17288
 Alpha  occ. eigenvalues --   -8.01082  -5.97389  -5.97121  -5.97002  -1.02386
 Alpha  occ. eigenvalues --   -0.88532  -0.84998  -0.84368  -0.82371  -0.80637
 Alpha  occ. eigenvalues --   -0.78811  -0.75555  -0.74018  -0.70206  -0.69229
 Alpha  occ. eigenvalues --   -0.65927  -0.63195  -0.59845  -0.58480  -0.57956
 Alpha  occ. eigenvalues --   -0.55110  -0.53740  -0.53276  -0.51398  -0.49621
 Alpha  occ. eigenvalues --   -0.48799  -0.48736  -0.47976  -0.45266  -0.44224
 Alpha  occ. eigenvalues --   -0.43360  -0.42234  -0.40904  -0.40453  -0.39949
 Alpha  occ. eigenvalues --   -0.39338  -0.38990  -0.38239  -0.37827  -0.37666
 Alpha  occ. eigenvalues --   -0.36840  -0.36444  -0.35225  -0.34031  -0.33597
 Alpha  occ. eigenvalues --   -0.32240  -0.29020  -0.27749  -0.27045  -0.23985
 Alpha  occ. eigenvalues --   -0.22821  -0.19603  -0.18610
 Alpha virt. eigenvalues --   -0.11718  -0.07163  -0.02484  -0.01705   0.00726
 Alpha virt. eigenvalues --    0.01852   0.03762   0.05651   0.07359   0.07608
 Alpha virt. eigenvalues --    0.07882   0.08921   0.09053   0.10159   0.11296

 Mulliken charges:
               1
     1  O   -0.332458
     2  C    0.352711
     3  C   -0.207798
     4  C   -0.024552
     5  C   -0.134359
     6  C   -0.049706
     7  C   -0.130554
     8  C   -0.158344
     9  C    0.201455
    10  C   -0.246034
    11  C   -0.104046
    12  C   -0.211684
    13  C    0.044481
    14  S    0.087925
    15  C   -0.145561
    16  C   -0.123563
    17  C   -0.018102
    18  C   -0.289584
    19  C    0.371455
    20  C   -0.418675
    21  H    0.108333
    22  H    0.090026
    23  H    0.105355
    24  H    0.099049
    25  H    0.108970
    26  H    0.099865
    27  H    0.096567
    28  H    0.097479
    29  H    0.097985
    30  H    0.140426
    31  H    0.113861
    32  H    0.109921
    33  H    0.135775
    34  H    0.133381
 Sum of Mulliken charges =  -0.00000

 Dipole moment (field-independent basis, Debye):
    X=             -2.0460    Y=              1.3363    Z=              1.5777  Tot=              2.9088
 Quadrupole moment (field-independent basis, Debye-Ang):
   XX=           -139.4939   YY=           -105.5303   ZZ=           -122.9441
   XY=              1.5717   XZ=             12.0589   YZ=             -0.0504

  Exact polarizability: 444.210  45.970 320.749  10.822   1.131 129.123
 Approx polarizability:1128.740 254.520 659.011   7.473  -6.596 245.335

                      1                      2                      3
                      A                      A                      A
 Frequencies --     23.0649                48.8387                69.9727
 Red. masses --      5.1617                 6.1112                 6.2760
 Frc consts  --      0.0016                 0.0086                 0.0181
 IR Inten    --      1.5322                 0.3760                 0.2143

                      4                      5                      6
                      A                      A                      A
 Frequencies --     76.2397                89.1612               102.9983
 Red. masses --      6.7574                 5.5118                 5.7002
 Frc consts  --      0.0231                 0.0258                 0.0356
 IR Inten    --      2.0301                 1.2903                 0.3889

                      7                      8                      9
                      A                      A                      A
 Frequencies --    117.1463               147.5993               165.0812
 Red. masses --      4.7081                 3.8500                 5.1544
 Frc consts  --      0.0381                 0.0494                 0.0828
 IR Inten    --      2.0419                 3.1802                 0.2167

                     10                     11                     12
                      A                      A                      A
 Frequencies --    172.6666               190.5432               210.8132
 Red. masses --      3.1909                 2.6828                 4.2542
 Frc consts  --      0.0561                 0.0574                 0.1114
 IR Inten    --      0.7781                 5.2960                 4.5187

                     13                     14                     15
                      A                      A                      A
 Frequencies --    230.5234               262.6639               279.0736
 Red. masses --      3.7564                 3.9667                 2.6331
 Frc consts  --      0.1176                 0.1612                 0.1208
 IR Inten    --      0.2883                 3.7996                 1.3738

                     16                     17                     18
                      A                      A                      A
 Frequencies --    288.0595               331.4492               362.2126
 Red. masses --      5.2901                 3.8624                 4.9667
 Frc consts  --      0.2586                 0.2500                 0.3839
 IR Inten    --      2.1638                 5.1030                 6.9353

                     19                     20                     21
                      A                      A                      A
 Frequencies --    377.5533               413.4825               444.4200
 Red. masses --      4.9090                 5.8269                 4.3703
 Frc consts  --      0.4123                 0.5869                 0.5086
 IR Inten    --      5.6167                 3.4401                 5.6470

                     22                     23                     24
                      A                      A                      A
 Frequencies --    454.2727               497.5427               501.8618
 Red. masses --      5.5009                 3.2286                 4.2710
 Frc consts  --      0.6688                 0.4709                 0.6338
 IR Inten    --      4.0518                 4.8846                12.0130

                     25                     26                     27
                      A                      A                      A
 Frequencies --    524.9945               566.3651               582.7680
 Red. masses --      5.7391                 4.1609                 3.2950
 Frc consts  --      0.9320                 0.7864                 0.6593
 IR Inten    --     15.5884                 8.3374                 8.6249

                     28                     29                     30
                      A                      A                      A
 Frequencies --    601.8098               610.4722               647.6197
 Red. masses --      4.4306                 2.8505                 2.9283
 Frc consts  --      0.9454                 0.6259                 0.7236
 IR Inten    --     29.7100                 9.8864                10.7499

                     31                     32                     33
                      A                      A                      A
 Frequencies --    694.7171               709.9061               727.1165
 Red. masses --      1.5260                 3.7408                 1.4127
 Frc consts  --      0.4339                 1.1107                 0.4401
 IR Inten    --      1.7841                 8.9241                56.3293

                     34                     35                     36
                      A                      A                      A
 Frequencies --    776.3102               785.5669               792.2151
 Red. masses --      2.6820                 4.0913                 2.9189
 Frc consts  --      0.9523                 1.4876                 1.0793
 IR Inten    --     21.4668                10.8507                 3.7914

                     37                     38                     39
                      A                      A                      A
 Frequencies --    801.4055               823.0112               836.4724
 Red. masses --      1.4584                 3.9809                 3.4658
 Frc consts  --      0.5519                 1.5887                 1.4287
 IR Inten    --     12.1510                 2.3679                21.2697

                     40                     41                     42
                      A                      A                      A
 Frequencies --    847.9687               849.6153               859.9074
 Red. masses --      3.2464                 1.4948                 2.1261
 Frc consts  --      1.3753                 0.6357                 0.9263
 IR Inten    --     33.8482                 0.6240                16.0278

                     43                     44                     45
                      A                      A                      A
 Frequencies --    874.2596               882.2374               885.9234
 Red. masses --      1.5808                 1.7421                 2.2560
 Frc consts  --      0.7119                 0.7989                 1.0433
 IR Inten    --      9.7502                13.7635               126.2801

                     46                     47                     48
                      A                      A                      A
 Frequencies --    912.4659               919.1428               965.4571
 Red. masses --      2.4090                 1.6579                 1.1660
 Frc consts  --      1.1817                 0.8252                 0.6404
 IR Inten    --     11.9602                 3.1444                10.8740

                     49                     50                     51
                      A                      A                      A
 Frequencies --    988.8080               998.1586              1022.2848
 Red. masses --      1.2705                 1.1881                 2.0578
 Frc consts  --      0.7319                 0.6974                 1.2671
 IR Inten    --      2.4448                 2.4176                 7.8897

                     52                     53                     54
                      A                      A                      A
 Frequencies --   1049.7018              1057.8493              1097.6011
 Red. masses --      1.8593                 1.2221                 1.8784
 Frc consts  --      1.2070                 0.8057                 1.3333
 IR Inten    --     49.9268               126.2523                15.4360

                     55                     56                     57
                      A                      A                      A
 Frequencies --   1114.8442              1137.6327              1160.5257
 Red. masses --      1.7250                 2.6580                 2.1213
 Frc consts  --      1.2632                 2.0268                 1.6833
 IR Inten    --     48.0177                22.8932                10.1446

                     58                     59                     60
                      A                      A                      A
 Frequencies --   1174.0561              1197.0712              1220.2701
 Red. masses --      2.9229                 2.3947                 1.6143
 Frc consts  --      2.3738                 2.0219                 1.4163
 IR Inten    --     21.7016               227.9674                20.3965

                     61                     62                     63
                      A                      A                      A
 Frequencies --   1224.6844              1251.2678              1268.4268
 Red. masses --      1.8233                 1.6941                 1.7652
 Frc consts  --      1.6112                 1.5628                 1.6733
 IR Inten    --     45.2815                28.2723               131.1867

                     64                     65                     66
                      A                      A                      A
 Frequencies --   1282.7898              1309.4306              1324.8715
 Red. masses --      2.4320                 1.4267                 1.6015
 Frc consts  --      2.3579                 1.4413                 1.6562
 IR Inten    --      7.8948                35.1572                40.7775

                     67                     68                     69
                      A                      A                      A
 Frequencies --   1330.6233              1357.3392              1362.3186
 Red. masses --      1.6507                 1.1436                 1.3827
 Frc consts  --      1.7220                 1.2413                 1.5119
 IR Inten    --      5.4069                 3.2072                 3.2428

                     70                     71                     72
                      A                      A                      A
 Frequencies --   1398.1878              1407.1711              1422.3196
 Red. masses --      1.6198                 1.4034                 2.0793
 Frc consts  --      1.8657                 1.6372                 2.4783
 IR Inten    --      2.0284                 9.1823                33.6219

                     73                     74                     75
                      A                      A                      A
 Frequencies --   1429.9310              1457.3946              1492.2759
 Red. masses --      4.0095                 2.2395                 1.6989
 Frc consts  --      4.8302                 2.8026                 2.2290
 IR Inten    --    104.8131                18.6020                 1.7817

                     76                     77                     78
                      A                      A                      A
 Frequencies --   1552.7011              1582.4690              1597.1443
 Red. masses --      4.3231                 4.1012                 3.6633
 Frc consts  --      6.1407                 6.0510                 5.5057
 IR Inten    --     27.9872                27.1436               374.3785

                     79                     80                     81
                      A                      A                      A
 Frequencies --   1612.5748              1643.5172              1734.6749
 Red. masses --      5.7660                 4.9978                11.5218
 Frc consts  --      8.8342                 7.9538                20.4271
 IR Inten    --     13.4152                76.2156               436.6601

                     82                     83                     84
                      A                      A                      A
 Frequencies --   1988.7833              3092.1069              3103.7698
 Red. masses --     11.0191                 1.0817                 1.0846
 Frc consts  --     25.6786                 6.0937                 6.1560
 IR Inten    --    123.2914                 6.7722                 4.1400

                     85                     86                     87
                      A                      A                      A
 Frequencies --   3123.5294              3129.4207              3137.8725
 Red. masses --      1.0851                 1.0830                 1.0866
 Frc consts  --      6.2373                 6.2488                 6.3039
 IR Inten    --     14.6619                 4.4924                 1.9599

                     88                     89                     90
                      A                      A                      A
 Frequencies --   3158.0900              3162.3627              3168.1621
 Red. masses --      1.0880                 1.0865                 1.0892
 Frc consts  --      6.3934                 6.4019                 6.4410
 IR Inten    --     22.1957                 7.4721                 1.1995

                     91                     92                     93
                      A                      A                      A
 Frequencies --   3174.2817              3181.7424              3193.5326
 Red. masses --      1.0866                 1.0901                 1.0869
 Frc consts  --      6.4509                 6.5021                 6.5308
 IR Inten    --     15.5174                 9.1195                 3.2914

                     94                     95                     96
                      A                      A                      A
 Frequencies --   3214.0561              3230.7977              3244.0562
 Red. masses --      1.0871                 1.0940                 1.1007
 Frc consts  --      6.6163                 6.7279                 6.8249
 IR Inten    --      6.2361                 6.8966                21.9368

 - Thermochemistry -
 -------------------
 Temperature   298.150 Kelvin.  Pressure   1.00000 Atm.
 Atom     1 has atomic number  8 and mass  15.99491

 Molecular mass:   278.07654 amu.
 Principal axes and moments of inertia in atomic units:
                           1         2         3
     Eigenvalues --  4796.634517354.18326**********
           X            0.99996   0.00502   0.00788
           Y           -0.00501   0.99999  -0.00210
           Z           -0.00789   0.00206   0.99997
 This molecule is an asymmetric top.
 Rotational symmetry number  1.
 Warning -- assumption of classical behavior for rotation
           may cause significant error
 Rotational temperatures (Kelvin)      0.01806     0.01178     0.00756
 Rotational constants (GHZ):           0.37625     0.24540     0.15747
 Zero-point vibrational energy     681264.0 (Joules/Mol)
                                  162.82601 (Kcal/Mol)
 Warning -- explicit consideration of  29 degrees of freedom as
           vibrations may cause significant error
 Vibrational temperatures:     33.19    70.27   100.68   109.69   128.28
          (Kelvin)            148.19   168.55   212.36   237.51   248.43
                              274.15   303.31   331.67   377.91   401.52
                              414.45   476.88   521.14   543.21   594.91
                              639.42   653.60   715.85   722.07   755.35
                              814.87   838.47   865.87   878.33   931.78
                              999.54  1021.40  1046.16  1116.94  1130.26
                             1139.82  1153.04  1184.13  1203.50  1220.04
                             1222.41  1237.22  1257.86  1269.34  1274.65
                             1312.83  1322.44  1389.08  1422.67  1436.13
                             1470.84  1510.29  1522.01  1579.20  1604.01
                             1636.80  1669.74  1689.20  1722.32  1755.70
                             1762.05  1800.30  1824.98  1845.65  1883.98
                             1906.19  1914.47  1952.91  1960.07  2011.68
                             2024.61  2046.40  2057.35  2096.87  2147.05
                             2233.99  2276.82  2297.93  2320.14  2364.65
                             2495.81  2861.42  4448.85  4465.63  4494.06
                             4502.54  4514.70  4543.79  4549.93  4558.28
                             4567.08  4577.82  4594.78  4624.31  4648.40
                             4667.47

 Zero-point correction=                           0.259480 (Hartree/Particle)
 Thermal correction to Energy=                    0.277774
 Thermal correction to Enthalpy=                  0.278718
 Thermal correction to Gibbs Free Energy=         0.212294
 Sum of electronic and zero-point Energies=          -1167.300851
 Sum of electronic and thermal Energies=             -1167.282557
 Sum of electronic and thermal Enthalpies=           -1167.281613
 Sum of electronic and thermal Free Energies=        -1167.348037

                     E (Thermal)             CV                S
                      KCal/Mol        Cal/Mol-Kelvin    Cal/Mol-Kelvin
 Total                  174.306             70.279            139.800
 Electronic               0.000              0.000              0.000
 Translational            0.889              2.981             42.767
 Rotational               0.889              2.981             34.357
 Vibrational            172.528             64.317             62.676
 Vibration     1          0.593              1.985              6.351
 Vibration     2          0.595              1.978              4.864
 Vibration     3          0.598              1.968              4.154
 Vibration     4          0.599              1.965              3.985
 Vibration     5          0.602              1.957              3.678
 Vibration     6          0.605              1.947              3.397
 Vibration     7          0.608              1.935              3.147
 Vibration     8          0.617              1.905              2.703
 Vibration     9          0.623              1.885              2.491
 Vibration    10          0.626              1.876              2.406
 Vibration    11          0.634              1.853              2.223
 Vibration    12          0.643              1.824              2.037
 Vibration    13          0.652              1.794              1.875
 Vibration    14          0.670              1.741              1.644
 Vibration    15          0.679              1.712              1.539
 Vibration    16          0.685              1.696              1.485
 Vibration    17          0.714              1.613              1.253
 Vibration    18          0.736              1.550              1.113
 Vibration    19          0.748              1.518              1.049
 Vibration    20          0.777              1.441              0.914
 Vibration    21          0.804              1.373              0.813
 Vibration    22          0.813              1.351              0.783
 Vibration    23          0.853              1.255              0.664
 Vibration    24          0.857              1.246              0.653
 Vibration    25          0.880              1.195              0.598
 Vibration    26          0.922              1.104              0.511
 Vibration    27          0.940              1.069              0.480
 Vibration    28          0.960              1.028              0.447
 Vibration    29          0.970              1.010              0.432

                           ! Non-Optimized Parameters !
 Normal termination of Gaussian 16 at Tue May 23 17:25:44 2023.
