 Gaussian 16, Revision A.03,
 Gaussian 16:  ES64L-G16RevA.03 25-Dec-2016

 -----------------------------
 # opt freq b3lyp/6-31g(2df,p)
 -----------------------------

 -------------------
 Title Card Required
 -------------------
 Symbolic Z-matrix:
 Charge =  0 Multiplicity = 1

 SCF Done:  E(RB3LYP) =  -915.454724598     A.U. after   20 cycles
 SCF Done:  E(RB3LYP) =  -915.517554561     A.U. after   15 cycles
 SCF Done:  E(RB3LYP) =  -915.586508649     A.U. after   15 cycles
 SCF Done:  E(RB3LYP) =  -915.608974729     A.U. after   14 cycles
 SCF Done:  E(RB3LYP) =  -915.626060870     A.U. after   14 cycles
 SCF Done:  E(RB3LYP) =  -915.651624836     A.U. after   14 cycles
 SCF Done:  E(RB3LYP) =  -915.672052907     A.U. after   13 cycles
 SCF Done:  E(RB3LYP) =  -915.694946589     A.U. after   14 cycles
 SCF Done:  E(RB3LYP) =  -915.712201913     A.U. after   13 cycles
 SCF Done:  E(RB3LYP) =  -915.724456831     A.U. after   13 cycles
 SCF Done:  E(RB3LYP) =  -915.735860075     A.U. after   13 cycles
 SCF Done:  E(RB3LYP) =  -915.738172564     A.U. after   13 cycles
 SCF Done:  E(RB3LYP) =  -915.740266910     A.U. after   13 cycles
 SCF Done:  E(RB3LYP) =  -915.741711391     A.U. after   13 cycles
 SCF Done:  E(RB3LYP) =  -915.742320981     A.U. after   13 cycles
 SCF Done:  E(RB3LYP) =  -915.742457817     A.U. after   12 cycles
 SCF Done:  E(RB3LYP) =  -915.742487665     A.U. after    9 cycles
 SCF Done:  E(RB3LYP) =  -915.742493807     A.U. after    8 cycles
 SCF Done:  E(RB3LYP) =  -915.742494392     A.U. after    7 cycles
 Optimization completed.
    -- Stationary point found.
 Normal termination of Gaussian 16 at Sun May 28 06:20:37 2023.

 ----------------------------------------------------------------------
 #N Geom=AllCheck Guess=TCheck SCRF=Check GenChk RB3LYP/6-31G(2df,p) Fr
 eq
 ----------------------------------------------------------------------

 Structure from the checkpoint file:  "OdC1CdCC2dCCN2C2CCC1S2.chk"
 -------------------
 Title Card Required
 -------------------
 Charge =  0 Multiplicity = 1

                         Standard orientation:
 ---------------------------------------------------------------------
 Center     Atomic      Atomic             Coordinates (Angstroms)
 Number     Number       Type             X           Y           Z
 ---------------------------------------------------------------------
      1          8           0        2.806166    1.532393    0.429538
      2          6           0        1.755734    1.074119    0.030989
      3          6           0        0.553377    2.020444    0.079317
      4          6           0       -0.799218    1.978699    0.205831
      5          6           0       -1.786688    0.907942    0.279589
      6          6           0       -3.032200    0.701507   -0.205791
      7          6           0       -2.907275   -0.781512    0.089917
      8          7           0       -1.604707   -0.437638    0.758096
      9          6           0       -0.294447   -0.856200    0.429542
     10          6           0        0.562407   -2.004503    0.946537
     11          6           0        1.978326   -1.517235    0.479156
     12          6           0        1.797177   -0.363979   -0.579072
     13         16           0        0.220615   -0.743317   -1.396200
     14          1           0        0.968338    3.026256    0.074274
     15          1           0       -1.274062    2.959316    0.201417
     16          1           0       -3.800540    1.320895   -0.638834
     17          1           0       -2.751306   -1.401776   -0.799527
     18          1           0       -3.635748   -1.258433    0.753208
     19          1           0        0.238870   -0.017617    0.868703
     20          1           0        0.300521   -2.971968    0.514308
     21          1           0        0.502173   -2.075739    2.037265
     22          1           0        2.534062   -2.329796    0.007957
     23          1           0        2.574940   -1.150343    1.320120
     24          1           0        2.633379   -0.359093   -1.278755
 ---------------------------------------------------------------------

 SCF Done:  E(RB3LYP) =  -915.742494392     A.U. after    1 cycles

 The electronic state is 1-A.
 Alpha  occ. eigenvalues --  -88.85971 -19.13582 -14.35211 -10.28232 -10.24658
 Alpha  occ. eigenvalues --  -10.23187 -10.23137 -10.22891 -10.21993 -10.21009
 Alpha  occ. eigenvalues --  -10.20153 -10.19862 -10.19475  -7.92386  -5.88780
 Alpha  occ. eigenvalues --   -5.88596  -5.87916  -1.04728  -0.98378  -0.86089
 Alpha  occ. eigenvalues --   -0.80153  -0.77690  -0.73459  -0.69865  -0.68506
 Alpha  occ. eigenvalues --   -0.63907  -0.60538  -0.58617  -0.55552  -0.52714
 Alpha  occ. eigenvalues --   -0.49280  -0.49009  -0.48023  -0.46093  -0.44350
 Alpha  occ. eigenvalues --   -0.42972  -0.42338  -0.41454  -0.40650  -0.38911
 Alpha  occ. eigenvalues --   -0.37070  -0.36221  -0.35181  -0.34561  -0.33660
 Alpha  occ. eigenvalues --   -0.32473  -0.31395  -0.26624  -0.26076  -0.22313
 Alpha  occ. eigenvalues --   -0.21405
 Alpha virt. eigenvalues --   -0.07088  -0.00331   0.01623   0.06427   0.07618
 Alpha virt. eigenvalues --    0.09298   0.10176   0.11603   0.12110   0.13175
 Alpha virt. eigenvalues --    0.13983   0.14309   0.14885   0.15351   0.16654

 Mulliken charges:
               1
     1  O   -0.322617
     2  C    0.309746
     3  C   -0.166872
     4  C   -0.118086
     5  C    0.338328
     6  C   -0.272897
     7  C   -0.224741
     8  N   -0.214148
     9  C    0.125572
    10  C   -0.276212
    11  C   -0.214646
    12  C   -0.099642
    13  S   -0.235640
    14  H    0.120903
    15  H    0.119552
    16  H    0.119407
    17  H    0.143219
    18  H    0.124486
    19  H    0.142698
    20  H    0.118790
    21  H    0.114573
    22  H    0.119156
    23  H    0.127031
    24  H    0.122042
 Sum of Mulliken charges =  -0.00000

 Dipole moment (field-independent basis, Debye):
    X=             -2.2585    Y=             -0.8987    Z=              0.2588  Tot=              2.4445
 Quadrupole moment (field-independent basis, Debye-Ang):
   XX=            -82.1721   YY=            -79.0930   ZZ=            -86.3573
   XY=             -5.7457   XZ=             -0.7179   YZ=             -2.8744

  Exact polarizability: 176.477   5.017 124.422   3.948  -0.503  93.725
 Approx polarizability: 314.842  25.011 188.435  14.216   3.702 171.277

                      1                      2                      3
                      A                      A                      A
 Frequencies --     69.6313               119.6321               172.5538
 Red. masses --      6.4258                 4.5220                 3.8612
 Frc consts  --      0.0184                 0.0381                 0.0677
 IR Inten    --      3.4373                 2.6881                 3.9322

                      4                      5                      6
                      A                      A                      A
 Frequencies --    214.8644               231.4108               270.4723
 Red. masses --      2.6907                 2.3047                 6.0152
 Frc consts  --      0.0732                 0.0727                 0.2593
 IR Inten    --      5.7054                 3.1905                 0.3683

                      7                      8                      9
                      A                      A                      A
 Frequencies --    274.2570               330.0402               362.7795
 Red. masses --      4.0144                 3.5494                 4.5838
 Frc consts  --      0.1779                 0.2278                 0.3554
 IR Inten    --      1.3381                 0.0532                12.5289

                     10                     11                     12
                      A                      A                      A
 Frequencies --    409.1960               430.4303               458.0338
 Red. masses --      5.2348                 4.4258                 6.4566
 Frc consts  --      0.5164                 0.4831                 0.7981
 IR Inten    --      5.2356                 9.6802                 8.5427

                     13                     14                     15
                      A                      A                      A
 Frequencies --    523.4191               538.2174               601.9644
 Red. masses --      3.8831                 5.8212                 4.1648
 Frc consts  --      0.6268                 0.9935                 0.8892
 IR Inten    --      5.0158                 2.1325                 3.3518

                     16                     17                     18
                      A                      A                      A
 Frequencies --    604.7880               621.2443               677.1179
 Red. masses --      3.6707                 3.4438                 4.0574
 Frc consts  --      0.7911                 0.7831                 1.0960
 IR Inten    --     35.9000                 1.0718                 0.2118

                     19                     20                     21
                      A                      A                      A
 Frequencies --    709.1416               734.3921               762.4045
 Red. masses --      1.3226                 3.7976                 3.1426
 Frc consts  --      0.3919                 1.2068                 1.0763
 IR Inten    --      5.3793                 6.4180                 4.2548

                     22                     23                     24
                      A                      A                      A
 Frequencies --    810.2957               826.0469               853.9384
 Red. masses --      1.8983                 2.8724                 4.2156
 Frc consts  --      0.7343                 1.1548                 1.8112
 IR Inten    --     22.9666                 0.7650                41.5521

                     25                     26                     27
                      A                      A                      A
 Frequencies --    877.8408               890.1094               947.0130
 Red. masses --      2.8434                 2.1720                 2.0041
 Frc consts  --      1.2910                 1.0139                 1.0590
 IR Inten    --      6.7561                 5.4868                16.6940

                     28                     29                     30
                      A                      A                      A
 Frequencies --    970.6922               991.3402               993.7121
 Red. masses --      3.8354                 3.9532                 1.8237
 Frc consts  --      2.1293                 2.2890                 1.0610
 IR Inten    --      3.0072                 9.9848                 7.3736

                     31                     32                     33
                      A                      A                      A
 Frequencies --   1007.1972              1025.2835              1072.2017
 Red. masses --      1.2881                 1.8312                 2.7152
 Frc consts  --      0.7699                 1.1342                 1.8391
 IR Inten    --      1.5073                19.1530                65.7251

                     34                     35                     36
                      A                      A                      A
 Frequencies --   1095.7675              1116.6128              1142.2272
 Red. masses --      2.7155                 1.3136                 1.4080
 Frc consts  --      1.9211                 0.9650                 1.0823
 IR Inten    --     13.5343                 2.9629                16.0814

                     37                     38                     39
                      A                      A                      A
 Frequencies --   1169.7731              1197.4113              1205.7465
 Red. masses --      1.2841                 1.8687                 1.7828
 Frc consts  --      1.0353                 1.5787                 1.5271
 IR Inten    --     12.2890                 1.7307                 1.7459

                     40                     41                     42
                      A                      A                      A
 Frequencies --   1224.2816              1266.1329              1275.5739
 Red. masses --      1.2979                 1.2347                 1.5402
 Frc consts  --      1.1462                 1.1662                 1.4765
 IR Inten    --      4.3981                 1.8333                29.7892

                     43                     44                     45
                      A                      A                      A
 Frequencies --   1283.9744              1295.1281              1324.1371
 Red. masses --      1.3990                 1.6758                 1.3135
 Frc consts  --      1.3589                 1.6561                 1.3568
 IR Inten    --      4.6729                63.6705                 1.6669

                     46                     47                     48
                      A                      A                      A
 Frequencies --   1350.8678              1358.0372              1407.9917
 Red. masses --      2.5940                 1.6379                 1.3384
 Frc consts  --      2.7889                 1.7798                 1.5633
 IR Inten    --     84.8249                 8.1721                 1.6881

                     49                     50                     51
                      A                      A                      A
 Frequencies --   1477.2193              1481.3462              1500.3568
 Red. masses --      1.1160                 1.0794                 1.1071
 Frc consts  --      1.4348                 1.3956                 1.4683
 IR Inten    --      3.6762                 2.1855                 3.5661

                     52                     53                     54
                      A                      A                      A
 Frequencies --   1569.3966              1576.7307              1656.8601
 Red. masses --      1.8909                 1.8593                 7.3203
 Frc consts  --      2.7440                 2.7234                11.8399
 IR Inten    --      9.0743                16.7393                29.4839

                     55                     56                     57
                      A                      A                      A
 Frequencies --   1745.2437              3042.0329              3054.1906
 Red. masses --     11.6729                 1.0553                 1.0611
 Frc consts  --     20.9479                 5.7539                 5.8318
 IR Inten    --    193.3292                32.4836                18.6732

                     58                     59                     60
                      A                      A                      A
 Frequencies --   3064.5948              3093.8876              3097.9498
 Red. masses --      1.0617                 1.1080                 1.0870
 Frc consts  --      5.8746                 6.2490                 6.1468
 IR Inten    --     35.3371                22.3606                 2.3328

                     61                     62                     63
                      A                      A                      A
 Frequencies --   3109.5327              3114.8063              3127.3668
 Red. masses --      1.0932                 1.0925                 1.0853
 Frc consts  --      6.2282                 6.2450                 6.2542
 IR Inten    --      0.6429                11.7678                 0.7309

                     64                     65                     66
                      A                      A                      A
 Frequencies --   3128.7179              3155.0133              3268.3748
 Red. masses --      1.0981                 1.0888                 1.1010
 Frc consts  --      6.3331                 6.3857                 6.9297
 IR Inten    --     24.7844                10.0784                 0.9327

 - Thermochemistry -
 -------------------
 Temperature   298.150 Kelvin.  Pressure   1.00000 Atm.
 Atom     1 has atomic number  8 and mass  15.99491

 Molecular mass:   193.05614 amu.
 Principal axes and moments of inertia in atomic units:
                           1         2         3
     Eigenvalues --  1520.208812559.243683327.96329
           X            0.99950  -0.03079   0.00667
           Y            0.03098   0.99903  -0.03129
           Z           -0.00570   0.03148   0.99949
 This molecule is an asymmetric top.
 Rotational symmetry number  1.
 Warning -- assumption of classical behavior for rotation
           may cause significant error
 Rotational temperatures (Kelvin)      0.05698     0.03384     0.02603
 Rotational constants (GHZ):           1.18717     0.70519     0.54230
 Zero-point vibrational energy     504578.5 (Joules/Mol)
                                  120.59717 (Kcal/Mol)
 Warning -- explicit consideration of  16 degrees of freedom as
           vibrations may cause significant error
 Vibrational temperatures:    100.18   172.12   248.27   309.14   332.95
          (Kelvin)            389.15   394.59   474.85   521.96   588.74
                              619.29   659.01   753.08   774.37   866.09
                              870.16   893.83   974.22  1020.30  1056.63
                             1096.93  1165.83  1188.50  1228.63  1263.02
                             1280.67  1362.54  1396.61  1426.32  1429.73
                             1449.13  1475.15  1542.66  1576.56  1606.56
                             1643.41  1683.04  1722.81  1734.80  1761.47
                             1821.68  1835.27  1847.35  1863.40  1905.14
                             1943.60  1953.91  2025.79  2125.39  2131.33
                             2158.68  2258.01  2268.56  2383.85  2511.02
                             4376.81  4394.30  4409.27  4451.41  4457.26
                             4473.92  4481.51  4499.58  4501.53  4539.36
                             4702.46

 Zero-point correction=                           0.192184 (Hartree/Particle)
 Thermal correction to Energy=                    0.202769
 Thermal correction to Enthalpy=                  0.203714
 Thermal correction to Gibbs Free Energy=         0.156207
 Sum of electronic and zero-point Energies=           -915.550311
 Sum of electronic and thermal Energies=              -915.539725
 Sum of electronic and thermal Enthalpies=            -915.538781
 Sum of electronic and thermal Free Energies=         -915.586288

                     E (Thermal)             CV                S
                      KCal/Mol        Cal/Mol-Kelvin    Cal/Mol-Kelvin
 Total                  127.240             43.388             99.987
 Electronic               0.000              0.000              0.000
 Translational            0.889              2.981             41.679
 Rotational               0.889              2.981             30.938
 Vibrational            125.462             37.426             27.370
 Vibration     1          0.598              1.969              4.164
 Vibration     2          0.609              1.933              3.106
 Vibration     3          0.626              1.876              2.407
 Vibration     4          0.645              1.818              2.002
 Vibration     5          0.653              1.793              1.868
 Vibration     6          0.674              1.728              1.593
 Vibration     7          0.677              1.721              1.569
 Vibration     8          0.713              1.615              1.260
 Vibration     9          0.737              1.549              1.110
 Vibration    10          0.774              1.450              0.929
 Vibration    11          0.792              1.404              0.857
 Vibration    12          0.816              1.343              0.772
 Vibration    13          0.878              1.198              0.602
 Vibration    14          0.893              1.166              0.569
 Vibration    15          0.960              1.028              0.446
 Vibration    16          0.963              1.022              0.441

 Optimization completed.
    -- Stationary point found.
 Normal termination of Gaussian 16 at Sun May 28 07:44:39 2023.
