 Gaussian 16, Revision A.03,
 Gaussian 16:  ES64L-G16RevA.03 25-Dec-2016

 -----------------------------
 # opt freq b3lyp/6-31g(2df,p)
 -----------------------------

 -------------------
 Title Card Required
 -------------------
 Symbolic Z-matrix:
 Charge =  0 Multiplicity = 1

 SCF Done:  E(RB3LYP) =  -1232.75856629     A.U. after   21 cycles
 SCF Done:  E(RB3LYP) =  -1232.83614926     A.U. after   17 cycles
 SCF Done:  E(RB3LYP) =  -1232.91710776     A.U. after   16 cycles
 SCF Done:  E(RB3LYP) =  -1232.94471994     A.U. after   16 cycles
 SCF Done:  E(RB3LYP) =  -1232.95765712     A.U. after   15 cycles
 SCF Done:  E(RB3LYP) =  -1232.96346056     A.U. after   15 cycles
 SCF Done:  E(RB3LYP) =  -1232.96622163     A.U. after   15 cycles
 SCF Done:  E(RB3LYP) =  -1232.96838000     A.U. after   15 cycles
 SCF Done:  E(RB3LYP) =  -1232.96927838     A.U. after   15 cycles
 SCF Done:  E(RB3LYP) =  -1232.97032125     A.U. after   15 cycles
 SCF Done:  E(RB3LYP) =  -1232.97564558     A.U. after   14 cycles
 SCF Done:  E(RB3LYP) =  -1232.97572613     A.U. after   12 cycles
 SCF Done:  E(RB3LYP) =  -1232.97576030     A.U. after   12 cycles
 SCF Done:  E(RB3LYP) =  -1232.97576832     A.U. after   12 cycles
 SCF Done:  E(RB3LYP) =  -1232.97577423     A.U. after   12 cycles
 SCF Done:  E(RB3LYP) =  -1232.97577620     A.U. after   10 cycles
 SCF Done:  E(RB3LYP) =  -1232.97577782     A.U. after   12 cycles
 SCF Done:  E(RB3LYP) =  -1232.97577823     A.U. after    9 cycles
 SCF Done:  E(RB3LYP) =  -1232.97577828     A.U. after    8 cycles
 Optimization completed.
    -- Stationary point found.
 Normal termination of Gaussian 16 at Sat May 27 17:01:09 2023.

 ----------------------------------------------------------------------
 #N Geom=AllCheck Guess=TCheck SCRF=Check GenChk RB3LYP/6-31G(2df,p) Fr
 eq
 ----------------------------------------------------------------------

 Structure from the checkpoint file:  "Odc1ccccq[SH]qdOrdSrcn1.chk"
 -------------------
 Title Card Required
 -------------------
 Charge =  0 Multiplicity = 1

                         Standard orientation:
 ---------------------------------------------------------------------
 Center     Atomic      Atomic             Coordinates (Angstroms)
 Number     Number       Type             X           Y           Z
 ---------------------------------------------------------------------
      1          8           0       -1.865641    1.492855   -1.463275
      2          6           0       -1.922639    0.878507   -0.439872
      3          6           0       -2.561326   -0.486039   -0.152415
      4          6           0       -1.562500   -1.402387   -0.415467
      5          6           0       -0.955438   -1.507533    0.878187
      6          6           0        0.165991   -0.677496    1.077978
      7         16           0        1.499155   -0.618847   -0.091730
      8          8           0        1.200696   -1.259475   -1.376105
      9         16           0        2.335433    1.125168   -0.001867
     10          6           0       -0.417981    0.678288    1.488651
     11          7           0       -1.289206    1.283781    0.770456
     12          1           0       -3.116308   -0.545101    0.779991
     13          1           0       -0.938347   -1.341175   -1.299306
     14          1           0       -1.629267   -1.631277    1.725234
     15          1           0        2.322776   -1.487772    0.563841
     16          1           0       -0.124898    1.150636    2.427271
 ---------------------------------------------------------------------

 SCF Done:  E(RB3LYP) =  -1232.97577828     A.U. after    1 cycles

 The electronic state is 1-A.
 Alpha  occ. eigenvalues --  -89.07539 -88.85007 -19.15551 -19.14484 -14.38843
 Alpha  occ. eigenvalues --  -10.33579 -10.30402 -10.29247 -10.27744 -10.26041
 Alpha  occ. eigenvalues --  -10.23776  -8.10956  -7.91775  -6.07352  -6.07289
 Alpha  occ. eigenvalues --   -6.07256  -5.88383  -5.87510  -5.87444  -1.08149
 Alpha  occ. eigenvalues --   -1.07127  -0.97776  -0.89795  -0.84259  -0.79052
 Alpha  occ. eigenvalues --   -0.70068  -0.67909  -0.65008  -0.61925  -0.54607
 Alpha  occ. eigenvalues --   -0.54157  -0.51823  -0.50065  -0.48562  -0.47552
 Alpha  occ. eigenvalues --   -0.46723  -0.45816  -0.43208  -0.41996  -0.38273
 Alpha  occ. eigenvalues --   -0.34976  -0.31888  -0.31608  -0.31381  -0.27688
 Alpha  occ. eigenvalues --   -0.25700  -0.24964  -0.23669
 Alpha virt. eigenvalues --   -0.11838  -0.11023  -0.06802  -0.00429   0.00214
 Alpha virt. eigenvalues --    0.01871   0.03462   0.06574   0.08071   0.11734
 Alpha virt. eigenvalues --    0.12611   0.14501   0.16376   0.19525   0.21637

 Mulliken charges:
               1
     1  O   -0.275942
     2  C    0.380179
     3  C   -0.192108
     4  C   -0.077593
     5  C   -0.107122
     6  C   -0.083521
     7  S    0.309695
     8  O   -0.270053
     9  S   -0.349803
    10  C   -0.009679
    11  N   -0.139941
    12  H    0.151091
    13  H    0.216537
    14  H    0.156753
    15  H    0.137144
    16  H    0.154362
 Sum of Mulliken charges =  -0.00000

 Dipole moment (field-independent basis, Debye):
    X=             -2.8594    Y=             -3.9045    Z=              4.6590  Tot=              6.7177
 Quadrupole moment (field-independent basis, Debye-Ang):
   XX=            -76.2451   YY=            -78.7528   ZZ=            -78.3464
   XY=              2.4557   XZ=             -2.4468   YZ=              0.2831

  Exact polarizability: 143.201  10.226 106.282   8.393  -0.845  92.263
 Approx polarizability: 273.931  10.534 219.444  43.570  -2.229 190.726

                      1                      2                      3
                      A                      A                      A
 Frequencies --     23.8720                62.5231               134.0235
 Red. masses --     11.5966                10.8836                10.8077
 Frc consts  --      0.0039                 0.0251                 0.1144
 IR Inten    --      0.8629                 2.1198                 0.4254

                      4                      5                      6
                      A                      A                      A
 Frequencies --    183.3500               217.1309               253.1828
 Red. masses --      6.0833                 4.9881                 7.5935
 Frc consts  --      0.1205                 0.1386                 0.2868
 IR Inten    --      4.6671                16.2963                 5.8174

                      7                      8                      9
                      A                      A                      A
 Frequencies --    307.5725               331.1974               381.3055
 Red. masses --      4.9016                 7.3523                 4.8020
 Frc consts  --      0.2732                 0.4752                 0.4114
 IR Inten    --      3.2600                 5.5110                30.0579

                     10                     11                     12
                      A                      A                      A
 Frequencies --    397.6357               471.7365               504.2520
 Red. masses --      6.6949                 4.8114                 6.9704
 Frc consts  --      0.6237                 0.6308                 1.0442
 IR Inten    --      1.8611                11.3798                81.5426

                     13                     14                     15
                      A                      A                      A
 Frequencies --    545.0594               591.9827               631.4737
 Red. masses --      8.1241                 6.6404                 7.5852
 Frc consts  --      1.4220                 1.3711                 1.7821
 IR Inten    --     70.5310                20.7360                91.4970

                     16                     17                     18
                      A                      A                      A
 Frequencies --    644.8364               705.8625               761.8976
 Red. masses --      7.0667                 4.5351                 4.1668
 Frc consts  --      1.7313                 1.3313                 1.4251
 IR Inten    --      6.1390               140.0650                37.9885

                     19                     20                     21
                      A                      A                      A
 Frequencies --    801.8717               831.0337               870.8616
 Red. masses --      2.8408                 3.4450                 2.2031
 Frc consts  --      1.0762                 1.4018                 0.9844
 IR Inten    --     43.8038                45.4196                65.4916

                     22                     23                     24
                      A                      A                      A
 Frequencies --    921.7259               955.9752               984.3553
 Red. masses --      2.1279                 1.5149                 1.6176
 Frc consts  --      1.0651                 0.8157                 0.9235
 IR Inten    --     41.9077                56.6250                26.8786

                     25                     26                     27
                      A                      A                      A
 Frequencies --   1052.3053              1065.3521              1089.6576
 Red. masses --      1.7831                 1.2495                 1.3634
 Frc consts  --      1.1634                 0.8356                 0.9538
 IR Inten    --    107.4504                37.0153                81.2668

                     28                     29                     30
                      A                      A                      A
 Frequencies --   1141.9082              1169.6836              1227.2538
 Red. masses --      2.6129                 4.5641                 1.5399
 Frc consts  --      2.0074                 3.6791                 1.3665
 IR Inten    --     40.7899                82.8396                42.1124

                     31                     32                     33
                      A                      A                      A
 Frequencies --   1262.1891              1314.7530              1360.8888
 Red. masses --      2.7356                 1.4536                 1.3515
 Frc consts  --      2.5678                 1.4804                 1.4747
 IR Inten    --     25.7361                 8.6982                52.9568

                     34                     35                     36
                      A                      A                      A
 Frequencies --   1387.1076              1421.9491              1594.4302
 Red. masses --      1.7473                 2.4502                10.9487
 Frc consts  --      1.9808                 2.9189                16.3993
 IR Inten    --     63.9839                 9.6421               121.2441

                     37                     38                     39
                      A                      A                      A
 Frequencies --   1831.1264              2462.3073              3116.5257
 Red. masses --     12.6708                 1.0397                 1.0900
 Frc consts  --     25.0317                 3.7140                 6.2379
 IR Inten    --    339.8699                37.4270                20.9869

                     40                     41                     42
                      A                      A                      A
 Frequencies --   3124.1369              3157.1745              3212.7067
 Red. masses --      1.0873                 1.0874                 1.0923
 Frc consts  --      6.2527                 6.3863                 6.6424
 IR Inten    --      8.8922                 2.8977                22.6719

 - Thermochemistry -
 -------------------
 Temperature   298.150 Kelvin.  Pressure   1.00000 Atm.
 Atom     1 has atomic number  8 and mass  15.99491

 Molecular mass:   186.97617 amu.
 Principal axes and moments of inertia in atomic units:
                           1         2         3
     Eigenvalues --  1278.876642399.131622684.98460
           X            0.99995   0.00673  -0.00775
           Y           -0.00670   0.99997   0.00436
           Z            0.00778  -0.00431   0.99996
 This molecule is an asymmetric top.
 Rotational symmetry number  1.
 Warning -- assumption of classical behavior for rotation
           may cause significant error
 Rotational temperatures (Kelvin)      0.06773     0.03610     0.03226
 Rotational constants (GHZ):           1.41119     0.75225     0.67216
 Zero-point vibrational energy     266206.0 (Joules/Mol)
                                   63.62477 (Kcal/Mol)
 Warning -- explicit consideration of  14 degrees of freedom as
           vibrations may cause significant error
 Vibrational temperatures:     34.35    89.96   192.83   263.80   312.40
          (Kelvin)            364.27   442.53   476.52   548.61   572.11
                              678.72   725.51   784.22   851.73   908.55
                              927.78  1015.58  1096.20  1153.71  1195.67
                             1252.98  1326.16  1375.44  1416.27  1514.03
                             1532.80  1567.77  1642.95  1682.91  1765.74
                             1816.01  1891.64  1958.02  1995.74  2045.87
                             2294.03  2634.58  3542.71  4483.99  4494.94
                             4542.47  4622.37

 Zero-point correction=                           0.101393 (Hartree/Particle)
 Thermal correction to Energy=                    0.111470
 Thermal correction to Enthalpy=                  0.112414
 Thermal correction to Gibbs Free Energy=         0.064277
 Sum of electronic and zero-point Energies=          -1232.874386
 Sum of electronic and thermal Energies=             -1232.864309
 Sum of electronic and thermal Enthalpies=           -1232.863364
 Sum of electronic and thermal Free Energies=        -1232.911502

                     E (Thermal)             CV                S
                      KCal/Mol        Cal/Mol-Kelvin    Cal/Mol-Kelvin
 Total                   69.948             37.104            101.314
 Electronic               0.000              0.000              0.000
 Translational            0.889              2.981             41.583
 Rotational               0.889              2.981             30.489
 Vibrational             68.171             31.142             29.241
 Vibration     1          0.593              1.985              6.283
 Vibration     2          0.597              1.972              4.376
 Vibration     3          0.613              1.919              2.887
 Vibration     4          0.631              1.862              2.294
 Vibration     5          0.646              1.815              1.983
 Vibration     6          0.664              1.757              1.708
 Vibration     7          0.697              1.659              1.375
 Vibration     8          0.714              1.613              1.254
 Vibration     9          0.751              1.510              1.034
 Vibration    10          0.764              1.475              0.971
 Vibration    11          0.829              1.313              0.733
 Vibration    12          0.860              1.241              0.648
 Vibration    13          0.900              1.151              0.555
 Vibration    14          0.949              1.049              0.464

 Optimization completed.
    -- Stationary point found.
 Normal termination of Gaussian 16 at Sat May 27 17:37:21 2023.
