 Gaussian 16, Revision A.03,
 Gaussian 16:  ES64L-G16RevA.03 25-Dec-2016

 -----------------------------
 # opt freq b3lyp/6-31g(2df,p)
 -----------------------------

 -------------------
 Title Card Required
 -------------------
 Symbolic Z-matrix:
 Charge =  0 Multiplicity = 1

 SCF Done:  E(RB3LYP) =  -802.563364462     A.U. after   15 cycles
 SCF Done:  E(RB3LYP) =  -802.596455158     A.U. after   13 cycles
 SCF Done:  E(RB3LYP) =  -802.619753922     A.U. after   14 cycles
 SCF Done:  E(RB3LYP) =  -802.634455026     A.U. after   12 cycles
 SCF Done:  E(RB3LYP) =  -802.640951406     A.U. after   12 cycles
 SCF Done:  E(RB3LYP) =  -802.647066106     A.U. after   11 cycles
 SCF Done:  E(RB3LYP) =  -802.649417012     A.U. after   11 cycles
 SCF Done:  E(RB3LYP) =  -802.650332867     A.U. after   11 cycles
 SCF Done:  E(RB3LYP) =  -802.650774504     A.U. after   10 cycles
 SCF Done:  E(RB3LYP) =  -802.650918550     A.U. after   10 cycles
 SCF Done:  E(RB3LYP) =  -802.650943381     A.U. after    9 cycles
 SCF Done:  E(RB3LYP) =  -802.650958732     A.U. after    8 cycles
 SCF Done:  E(RB3LYP) =  -802.650960566     A.U. after    7 cycles
 SCF Done:  E(RB3LYP) =  -802.650961054     A.U. after    7 cycles
 SCF Done:  E(RB3LYP) =  -802.650961196     A.U. after    7 cycles
 Optimization completed.
    -- Stationary point found.
 Normal termination of Gaussian 16 at Sun May 28 16:16:39 2023.

 ----------------------------------------------------------------------
 #N Geom=AllCheck Guess=TCheck SCRF=Check GenChk RB3LYP/6-31G(2df,p) Fr
 eq
 ----------------------------------------------------------------------

 Structure from the checkpoint file:  "OdC1OCqCCCCOCOrC2OC2O1.chk"
 -------------------
 Title Card Required
 -------------------
 Charge =  0 Multiplicity = 1

                         Standard orientation:
 ---------------------------------------------------------------------
 Center     Atomic      Atomic             Coordinates (Angstroms)
 Number     Number       Type             X           Y           Z
 ---------------------------------------------------------------------
      1          8           0        5.037541   -1.313566   -0.406865
      2          6           0        4.067548   -0.640268   -0.275865
      3          8           0        2.919273   -1.166663    0.270861
      4          6           0        1.720565   -0.421655    0.806883
      5          6           0        0.475439   -0.785010    0.021763
      6          6           0       -0.775812   -0.115652    0.608947
      7          6           0       -2.056285   -0.527378   -0.123814
      8          6           0       -3.299001    0.142790    0.447778
      9          8           0       -4.421543   -0.299341   -0.285649
     10          6           0       -5.633018    0.278839    0.145283
     11          8           0       -6.666616   -0.165649   -0.664320
     12          6           0        2.310658    0.963114    0.753018
     13          8           0        2.172159    2.233194    0.060410
     14          6           0        2.753210    1.141844   -0.614722
     15          8           0        4.076468    0.682419   -0.736719
     16          1           0        1.638138   -0.790628    1.833102
     17          1           0        0.371794   -1.875249    0.045417
     18          1           0        0.589607   -0.508011   -1.031133
     19          1           0       -0.656400    0.974433    0.564166
     20          1           0       -0.862527   -0.373115    1.673213
     21          1           0       -2.189546   -1.614242   -0.070556
     22          1           0       -1.980747   -0.272770   -1.187795
     23          1           0       -3.204984    1.241413    0.387404
     24          1           0       -3.411879   -0.110053    1.516360
     25          1           0       -5.532199    1.382143    0.135598
     26          1           0       -5.878987   -0.041680    1.169203
     27          1           0       -6.464722    0.102500   -1.567734
     28          1           0        3.107214    1.059087    1.488894
     29          1           0        2.157154    0.843262   -1.473505
 ---------------------------------------------------------------------

 SCF Done:  E(RB3LYP) =  -802.650961196     A.U. after    1 cycles

 The electronic state is 1-A.
 Alpha  occ. eigenvalues --  -19.21032 -19.20839 -19.19965 -19.15032 -19.14972
 Alpha  occ. eigenvalues --  -19.13369 -10.36436 -10.31014 -10.29068 -10.28063
 Alpha  occ. eigenvalues --  -10.26408 -10.24204 -10.21537 -10.20968 -10.19888
 Alpha  occ. eigenvalues --   -1.15419  -1.11093  -1.07195  -1.05345  -1.03260
 Alpha  occ. eigenvalues --   -1.01148  -0.84018  -0.79488  -0.74089  -0.69384
 Alpha  occ. eigenvalues --   -0.68223  -0.66144  -0.63328  -0.60783  -0.59675
 Alpha  occ. eigenvalues --   -0.56125  -0.53503  -0.52478  -0.50931  -0.50339
 Alpha  occ. eigenvalues --   -0.49879  -0.48615  -0.48591  -0.46467  -0.45427
 Alpha  occ. eigenvalues --   -0.44267  -0.43623  -0.42674  -0.41205  -0.38966
 Alpha  occ. eigenvalues --   -0.38227  -0.36993  -0.36899  -0.35667  -0.34731
 Alpha  occ. eigenvalues --   -0.34089  -0.33489  -0.32007  -0.31589  -0.30134
 Alpha  occ. eigenvalues --   -0.29747  -0.28260  -0.26579
 Alpha virt. eigenvalues --    0.00410   0.02101   0.05563   0.06628   0.07024
 Alpha virt. eigenvalues --    0.07738   0.08365   0.08528   0.10479   0.11289
 Alpha virt. eigenvalues --    0.12466   0.13658   0.14779   0.15214   0.15918

 Mulliken charges:
               1
     1  O   -0.330732
     2  C    0.472614
     3  O   -0.308367
     4  C    0.050997
     5  C   -0.223693
     6  C   -0.202267
     7  C   -0.196538
     8  C   -0.057051
     9  O   -0.247509
    10  C    0.044189
    11  O   -0.394304
    12  C    0.017607
    13  O   -0.250506
    14  C    0.175944
    15  O   -0.265163
    16  H    0.116503
    17  H    0.129700
    18  H    0.113606
    19  H    0.119361
    20  H    0.105880
    21  H    0.115272
    22  H    0.109852
    23  H    0.089199
    24  H    0.090159
    25  H    0.072316
    26  H    0.101703
    27  H    0.289071
    28  H    0.137129
    29  H    0.125029
 Sum of Mulliken charges =  -0.00000

 Dipole moment (field-independent basis, Debye):
    X=             -3.3634    Y=              1.7484    Z=              1.0350  Tot=              3.9295
 Quadrupole moment (field-independent basis, Debye-Ang):
   XX=           -125.9699   YY=            -94.5959   ZZ=            -79.7945
   XY=             -0.4881   XZ=              5.4627   YZ=             -2.0722

  Exact polarizability: 149.644  -6.016 101.474  -3.400  -1.205  96.810
 Approx polarizability: 176.330 -10.574 165.610  -8.231  -3.832 155.333

                      1                      2                      3
                      A                      A                      A
 Frequencies --     24.0432                35.6314                41.2235
 Red. masses --      5.8330                 2.2964                 7.1287
 Frc consts  --      0.0020                 0.0017                 0.0071
 IR Inten    --      1.4643                 2.1974                 1.9082

                      4                      5                      6
                      A                      A                      A
 Frequencies --     66.1168                91.4572                97.9857
 Red. masses --      3.8872                 2.3020                 5.8946
 Frc consts  --      0.0100                 0.0113                 0.0333
 IR Inten    --      2.7860                 1.4213                 0.0181

                      7                      8                      9
                      A                      A                      A
 Frequencies --    123.2113               146.0967               151.4318
 Red. masses --      2.5339                 6.2476                 2.5471
 Frc consts  --      0.0227                 0.0786                 0.0344
 IR Inten    --      1.6365                 1.3689                 0.8902

                     10                     11                     12
                      A                      A                      A
 Frequencies --    187.3824               203.1422               234.1225
 Red. masses --      4.9430                 6.8366                 3.2766
 Frc consts  --      0.1023                 0.1662                 0.1058
 IR Inten    --      1.0437                 1.3159                 2.4783

                     13                     14                     15
                      A                      A                      A
 Frequencies --    309.8507               349.2027               381.2545
 Red. masses --      2.3767                 1.6695                 5.5194
 Frc consts  --      0.1344                 0.1199                 0.4727
 IR Inten    --     38.6121                71.3261                32.7354

                     16                     17                     18
                      A                      A                      A
 Frequencies --    400.9664               449.7341               476.5961
 Red. masses --      4.3202                 4.1976                 6.5631
 Frc consts  --      0.4092                 0.5002                 0.8783
 IR Inten    --     13.3862                 1.2153                 5.3440

                     19                     20                     21
                      A                      A                      A
 Frequencies --    507.0369               563.9884               588.3725
 Red. masses --      4.2145                 5.1705                 4.0334
 Frc consts  --      0.6384                 0.9690                 0.8227
 IR Inten    --      0.3073                 5.7354                 4.9974

                     22                     23                     24
                      A                      A                      A
 Frequencies --    636.6343               662.0458               747.4783
 Red. masses --      7.3763                 4.0354                 1.1607
 Frc consts  --      1.7614                 1.0421                 0.3821
 IR Inten    --     13.0384                 6.6558                 4.6834

                     25                     26                     27
                      A                      A                      A
 Frequencies --    750.1225               764.3572               805.6076
 Red. masses --      7.9175                 6.8539                 2.5303
 Frc consts  --      2.6249                 2.3593                 0.9675
 IR Inten    --     11.9860                20.7220                 3.3414

                     28                     29                     30
                      A                      A                      A
 Frequencies --    811.1398               910.4132               920.1156
 Red. masses --      1.5928                 2.4300                 2.5819
 Frc consts  --      0.6174                 1.1867                 1.2879
 IR Inten    --      1.5898                11.6847                46.8018

                     31                     32                     33
                      A                      A                      A
 Frequencies --    932.4433               971.8486               986.7433
 Red. masses --      6.1222                 2.1416                 7.1284
 Frc consts  --      3.1362                 1.1918                 4.0893
 IR Inten    --    152.5123                 3.8710               193.9904

                     34                     35                     36
                      A                      A                      A
 Frequencies --   1004.1881              1028.1898              1057.8568
 Red. masses --      4.1609                 3.5162                 2.4502
 Frc consts  --      2.4721                 2.1902                 1.6155
 IR Inten    --     29.8345                 5.2807                22.8851

                     37                     38                     39
                      A                      A                      A
 Frequencies --   1070.3252              1078.1697              1101.9553
 Red. masses --      2.0635                 1.5515                 2.8292
 Frc consts  --      1.3928                 1.0626                 2.0241
 IR Inten    --     84.3937                69.3637               106.0386

                     40                     41                     42
                      A                      A                      A
 Frequencies --   1106.0765              1128.4381              1133.9605
 Red. masses --      2.4539                 1.4777                 8.4750
 Frc consts  --      1.7688                 1.1087                 6.4207
 IR Inten    --    100.2837                19.8031               355.8559

                     43                     44                     45
                      A                      A                      A
 Frequencies --   1157.8671              1164.9238              1178.8803
 Red. masses --      3.5753                 2.2563                 2.8401
 Frc consts  --      2.8241                 1.8041                 2.3256
 IR Inten    --     42.5541                 3.8713                21.7406

                     46                     47                     48
                      A                      A                      A
 Frequencies --   1210.0138              1253.7844              1257.5022
 Red. masses --      1.3813                 1.2222                 1.2048
 Frc consts  --      1.1916                 1.1320                 1.1225
 IR Inten    --      2.8939                 9.1018                 3.9617

                     49                     50                     51
                      A                      A                      A
 Frequencies --   1276.3926              1316.2609              1318.4038
 Red. masses --      1.2661                 1.1394                 1.1940
 Frc consts  --      1.2153                 1.1631                 1.2228
 IR Inten    --      3.1228                 4.6333                 9.9047

                     52                     53                     54
                      A                      A                      A
 Frequencies --   1332.3467              1347.8176              1358.7083
 Red. masses --      1.1493                 1.3739                 1.6336
 Frc consts  --      1.2021                 1.4706                 1.7768
 IR Inten    --      0.6860                13.3442                41.3304

                     55                     56                     57
                      A                      A                      A
 Frequencies --   1391.0564              1397.3193              1402.1401
 Red. masses --      1.4353                 1.3967                 1.3788
 Frc consts  --      1.6363                 1.6067                 1.5971
 IR Inten    --     20.9070                 0.7549                13.3844

                     58                     59                     60
                      A                      A                      A
 Frequencies --   1418.3608              1423.7435              1465.6294
 Red. masses --      1.3429                 1.2201                 1.8007
 Frc consts  --      1.5918                 1.4572                 2.2789
 IR Inten    --     92.3602                21.8153                31.8867

                     61                     62                     63
                      A                      A                      A
 Frequencies --   1473.0239              1489.2517              1493.5975
 Red. masses --      1.3200                 1.0784                 1.0911
 Frc consts  --      1.6874                 1.4092                 1.4341
 IR Inten    --     34.2660                 0.8847                 2.5303

                     64                     65                     66
                      A                      A                      A
 Frequencies --   1509.2385              1526.0596              1544.6084
 Red. masses --      1.0997                 1.1027                 1.0985
 Frc consts  --      1.4759                 1.5130                 1.5441
 IR Inten    --      2.2413                 4.3458                 0.9963

                     67                     68                     69
                      A                      A                      A
 Frequencies --   1897.2360              2905.4257              2946.3176
 Red. masses --     13.0446                 1.0684                 1.0553
 Frc consts  --     27.6646                 5.3140                 5.3976
 IR Inten    --    549.5348                72.6234                55.2350

                     70                     71                     72
                      A                      A                      A
 Frequencies --   2970.5143              3004.7009              3014.4319
 Red. masses --      1.1045                 1.0909                 1.0592
 Frc consts  --      5.7423                 5.8029                 5.6706
 IR Inten    --     46.0354                62.3088                11.4307

                     73                     74                     75
                      A                      A                      A
 Frequencies --   3034.9431              3046.3804              3050.4682
 Red. masses --      1.0588                 1.0973                 1.0623
 Frc consts  --      5.7463                 5.9997                 5.8240
 IR Inten    --     21.8336                 3.0243                18.9687

                     76                     77                     78
                      A                      A                      A
 Frequencies --   3068.2106              3079.6570              3096.6102
 Red. masses --      1.0880                 1.1039                 1.1026
 Frc consts  --      6.0347                 6.1683                 6.2291
 IR Inten    --     15.4472                15.1098                53.2161

                     79                     80                     81
                      A                      A                      A
 Frequencies --   3119.6484              3140.2289              3807.2321
 Red. masses --      1.0873                 1.0856                 1.0654
 Frc consts  --      6.2346                 6.3072                 9.0985
 IR Inten    --      8.6518                19.2966                26.3961

 - Thermochemistry -
 -------------------
 Temperature   298.150 Kelvin.  Pressure   1.00000 Atm.
 Atom     1 has atomic number  8 and mass  15.99491

 Molecular mass:   218.07904 amu.
 Principal axes and moments of inertia in atomic units:
                           1         2         3
     Eigenvalues --   949.76376********************
           X            1.00000  -0.00179   0.00010
           Y            0.00179   1.00000  -0.00016
           Z           -0.00010   0.00016   1.00000
 This molecule is an asymmetric top.
 Rotational symmetry number  1.
 Warning -- assumption of classical behavior for rotation
           may cause significant error
 Rotational temperatures (Kelvin)      0.09120     0.00785     0.00753
 Rotational constants (GHZ):           1.90020     0.16348     0.15688
 Zero-point vibrational energy     615633.6 (Joules/Mol)
                                  147.13995 (Kcal/Mol)
 Warning -- explicit consideration of  21 degrees of freedom as
           vibrations may cause significant error
 Vibrational temperatures:     34.59    51.27    59.31    95.13   131.59
          (Kelvin)            140.98   177.27   210.20   217.88   269.60
                              292.28   336.85   445.81   502.42   548.54
                              576.90   647.07   685.72   729.51   811.45
                              846.54   915.97   952.54  1075.45  1079.26
                             1099.74  1159.09  1167.05  1309.88  1323.84
                             1341.58  1398.27  1419.70  1444.80  1479.34
                             1522.02  1539.96  1551.25  1585.47  1591.40
                             1623.57  1631.52  1665.91  1676.07  1696.15
                             1740.94  1803.92  1809.27  1836.44  1893.81
                             1896.89  1916.95  1939.21  1954.88  2001.42
                             2010.43  2017.37  2040.70  2048.45  2108.71
                             2119.35  2142.70  2148.95  2171.46  2195.66
                             2222.35  2729.70  4180.26  4239.09  4273.91
                             4323.09  4337.10  4366.61  4383.06  4388.94
                             4414.47  4430.94  4455.33  4488.48  4518.09
                             5477.76

 Zero-point correction=                           0.234482 (Hartree/Particle)
 Thermal correction to Energy=                    0.249732
 Thermal correction to Enthalpy=                  0.250676
 Thermal correction to Gibbs Free Energy=         0.189141
 Sum of electronic and zero-point Energies=           -802.416479
 Sum of electronic and thermal Energies=              -802.401229
 Sum of electronic and thermal Enthalpies=            -802.400285
 Sum of electronic and thermal Free Energies=         -802.461820

                     E (Thermal)             CV                S
                      KCal/Mol        Cal/Mol-Kelvin    Cal/Mol-Kelvin
 Total                  156.709             54.630            129.511
 Electronic               0.000              0.000              0.000
 Translational            0.889              2.981             42.042
 Rotational               0.889              2.981             33.156
 Vibrational            154.932             48.669             54.314
 Vibration     1          0.593              1.985              6.269
 Vibration     2          0.594              1.982              5.488
 Vibration     3          0.594              1.981              5.199
 Vibration     4          0.598              1.970              4.266
 Vibration     5          0.602              1.955              3.629
 Vibration     6          0.603              1.951              3.494
 Vibration     7          0.610              1.930              3.049
 Vibration     8          0.617              1.907              2.722
 Vibration     9          0.619              1.901              2.654
 Vibration    10          0.632              1.857              2.254
 Vibration    11          0.639              1.835              2.104
 Vibration    12          0.654              1.789              1.847
 Vibration    13          0.699              1.655              1.363
 Vibration    14          0.726              1.577              1.170
 Vibration    15          0.751              1.510              1.034
 Vibration    16          0.767              1.468              0.959
 Vibration    17          0.809              1.361              0.797
 Vibration    18          0.833              1.302              0.719
 Vibration    19          0.862              1.234              0.641
 Vibration    20          0.920              1.109              0.516
 Vibration    21          0.946              1.057              0.470

                           ! Non-Optimized Parameters !
 Normal termination of Gaussian 16 at Sun May 28 17:52:40 2023.
