 Gaussian 16, Revision A.03,
 Gaussian 16:  ES64L-G16RevA.03 25-Dec-2016

 -----------------------------
 # opt freq b3lyp/6-31g(2df,p)
 -----------------------------

 -------------------
 Title Card Required
 -------------------
 Symbolic Z-matrix:
 Charge =  0 Multiplicity = 1

 SCF Done:  E(RB3LYP) =  -745.564432746     A.U. after   14 cycles
 SCF Done:  E(RB3LYP) =  -745.575646430     A.U. after   13 cycles
 SCF Done:  E(RB3LYP) =  -745.579092426     A.U. after   13 cycles
 SCF Done:  E(RB3LYP) =  -745.584856820     A.U. after   15 cycles
 SCF Done:  E(RB3LYP) =  -745.588539126     A.U. after   13 cycles
 SCF Done:  E(RB3LYP) =  -745.590769345     A.U. after   12 cycles
 SCF Done:  E(RB3LYP) =  -745.592125758     A.U. after   12 cycles
 SCF Done:  E(RB3LYP) =  -745.592605718     A.U. after   13 cycles
 SCF Done:  E(RB3LYP) =  -745.593122497     A.U. after   12 cycles
 SCF Done:  E(RB3LYP) =  -745.593535935     A.U. after   12 cycles
 SCF Done:  E(RB3LYP) =  -745.599063646     A.U. after   11 cycles
 SCF Done:  E(RB3LYP) =  -745.599075175     A.U. after   10 cycles
 SCF Done:  E(RB3LYP) =  -745.599082482     A.U. after   10 cycles
 SCF Done:  E(RB3LYP) =  -745.599083401     A.U. after    8 cycles
 SCF Done:  E(RB3LYP) =  -745.599083446     A.U. after    7 cycles
 SCF Done:  E(RB3LYP) =  -745.599083517     A.U. after    7 cycles
 SCF Done:  E(RB3LYP) =  -745.599083539     A.U. after    7 cycles
 SCF Done:  E(RB3LYP) =  -745.599083558     A.U. after    7 cycles
 SCF Done:  E(RB3LYP) =  -745.599083571     A.U. after    6 cycles
 Optimization completed.
    -- Stationary point found.
 Normal termination of Gaussian 16 at Sun May 28 14:46:59 2023.

 ----------------------------------------------------------------------
 #N Geom=AllCheck Guess=TCheck SCRF=Check GenChk RB3LYP/6-31G(2df,p) Fr
 eq
 ----------------------------------------------------------------------

 Structure from the checkpoint file:  "OdC1CdCCCqCNOOrCCdCCO1.chk"
 -------------------
 Title Card Required
 -------------------
 Charge =  0 Multiplicity = 1

                         Standard orientation:
 ---------------------------------------------------------------------
 Center     Atomic      Atomic             Coordinates (Angstroms)
 Number     Number       Type             X           Y           Z
 ---------------------------------------------------------------------
      1          8           0        3.969715   -0.224932   -0.259935
      2          6           0        2.819799   -0.522137   -0.481824
      3          6           0        2.306863   -1.898875   -0.294565
      4          6           0        1.114447   -2.367142    0.100462
      5          6           0       -0.233393   -1.792715    0.465909
      6          6           0       -0.529895   -0.284465    0.439107
      7          6           0       -2.012162   -0.003200    0.740110
      8          7           0       -2.873404   -0.420892   -0.369913
      9          8           0       -4.208977   -0.127132   -0.005770
     10          8           0       -4.864077    0.436566   -1.159272
     11          6           0        0.347742    0.498347    1.453024
     12          6           0        0.556753    1.956701    1.101091
     13          6           0        1.326969    2.463549    0.135947
     14          6           0        2.188539    1.749278   -0.865807
     15          8           0        1.887229    0.347726   -0.927752
     16          1           0        3.109495   -2.622574   -0.401796
     17          1           0        1.096548   -3.451377    0.221963
     18          1           0       -0.459955   -2.180579    1.472788
     19          1           0       -0.948493   -2.317425   -0.185572
     20          1           0       -0.326394    0.089786   -0.562684
     21          1           0       -2.152992    1.076348    0.853068
     22          1           0       -2.301233   -0.471624    1.695843
     23          1           0       -2.857511   -1.433335   -0.482295
     24          1           0       -4.465037    1.319624   -1.197459
     25          1           0        1.311585   -0.002770    1.564049
     26          1           0       -0.124006    0.439077    2.441618
     27          1           0        0.015710    2.674052    1.713928
     28          1           0        1.369813    3.546240    0.027753
     29          1           0        3.253267    1.874489   -0.641721
     30          1           0        2.007945    2.152442   -1.868983
 ---------------------------------------------------------------------

 SCF Done:  E(RB3LYP) =  -745.599083571     A.U. after    1 cycles

 The electronic state is 1-A.
 Alpha  occ. eigenvalues --  -19.21735 -19.18461 -19.18224 -19.12729 -14.37369
 Alpha  occ. eigenvalues --  -10.31043 -10.24689 -10.21909 -10.21702 -10.20900
 Alpha  occ. eigenvalues --  -10.20152 -10.19859 -10.19449 -10.19258 -10.19233
 Alpha  occ. eigenvalues --   -1.13005  -1.10377  -1.01709  -0.95717  -0.84380
 Alpha  occ. eigenvalues --   -0.81525  -0.79990  -0.75923  -0.74584  -0.68619
 Alpha  occ. eigenvalues --   -0.66439  -0.63169  -0.58695  -0.56558  -0.54709
 Alpha  occ. eigenvalues --   -0.52838  -0.51145  -0.49935  -0.48388  -0.48030
 Alpha  occ. eigenvalues --   -0.46952  -0.46146  -0.44933  -0.43826  -0.43364
 Alpha  occ. eigenvalues --   -0.42579  -0.41482  -0.40719  -0.40002  -0.37784
 Alpha  occ. eigenvalues --   -0.37449  -0.36122  -0.35194  -0.33605  -0.33088
 Alpha  occ. eigenvalues --   -0.30285  -0.29882  -0.28483  -0.27580  -0.26972
 Alpha  occ. eigenvalues --   -0.25338  -0.24774
 Alpha virt. eigenvalues --   -0.04084   0.00523   0.03552   0.06091   0.07178
 Alpha virt. eigenvalues --    0.08317   0.08614   0.10209   0.11052   0.12610
 Alpha virt. eigenvalues --    0.12820   0.13647   0.14834   0.14986   0.16020

 Mulliken charges:
               1
     1  O   -0.366678
     2  C    0.397545
     3  C   -0.160884
     4  C   -0.021947
     5  C   -0.293892
     6  C    0.019364
     7  C   -0.133732
     8  N   -0.175801
     9  O   -0.193155
    10  O   -0.296747
    11  C   -0.281368
    12  C   -0.073951
    13  C   -0.033993
    14  C   -0.162323
    15  O   -0.232498
    16  H    0.120491
    17  H    0.109425
    18  H    0.121406
    19  H    0.114403
    20  H    0.114539
    21  H    0.110187
    22  H    0.094114
    23  H    0.240837
    24  H    0.299635
    25  H    0.118945
    26  H    0.094887
    27  H    0.093836
    28  H    0.094153
    29  H    0.157844
    30  H    0.125359
 Sum of Mulliken charges =   0.00000

 Dipole moment (field-independent basis, Debye):
    X=             -0.0320    Y=              0.2698    Z=              0.6689  Tot=              0.7220
 Quadrupole moment (field-independent basis, Debye-Ang):
   XX=           -116.4111   YY=            -73.8242   ZZ=            -87.5651
   XY=             -1.5027   XZ=             -3.8420   YZ=             -2.9353

  Exact polarizability: 156.677   3.134 135.003  -8.876  -7.899  99.427
 Approx polarizability: 225.598  14.378 189.639 -16.063 -17.516 164.310

                      1                      2                      3
                      A                      A                      A
 Frequencies --     30.8562                32.5397                39.7016
 Red. masses --      6.5396                 4.6813                 4.5777
 Frc consts  --      0.0037                 0.0029                 0.0043
 IR Inten    --      2.4755                 0.7352                 4.6793

                      4                      5                      6
                      A                      A                      A
 Frequencies --     63.3559                70.7961               100.5255
 Red. masses --      4.3957                 3.0063                 4.0490
 Frc consts  --      0.0104                 0.0089                 0.0241
 IR Inten    --      0.9911                 0.5887                 8.1068

                      7                      8                      9
                      A                      A                      A
 Frequencies --    160.0208               171.2867               195.3218
 Red. masses --      3.2029                 3.0604                 3.1775
 Frc consts  --      0.0483                 0.0529                 0.0714
 IR Inten    --      0.8815                 2.2201                 0.8144

                     10                     11                     12
                      A                      A                      A
 Frequencies --    229.0853               253.5067               264.3840
 Red. masses --      1.8192                 3.5154                 2.3279
 Frc consts  --      0.0562                 0.1331                 0.0959
 IR Inten    --     60.4850                15.0599                25.3153

                     13                     14                     15
                      A                      A                      A
 Frequencies --    314.3210               333.0629               346.6012
 Red. masses --      4.2763                 3.0560                 3.8653
 Frc consts  --      0.2489                 0.1997                 0.2736
 IR Inten    --     19.1065                10.2936                 3.6397

                     16                     17                     18
                      A                      A                      A
 Frequencies --    360.6453               405.7979               421.0798
 Red. masses --      2.6455                 5.1029                 2.4852
 Frc consts  --      0.2027                 0.4951                 0.2596
 IR Inten    --      7.2816                 6.4898                 2.2508

                     19                     20                     21
                      A                      A                      A
 Frequencies --    498.0391               526.7614               549.0511
 Red. masses --      2.7644                 3.5865                 4.4510
 Frc consts  --      0.4040                 0.5863                 0.7906
 IR Inten    --      0.7643                 2.6645                 6.3561

                     22                     23                     24
                      A                      A                      A
 Frequencies --    588.8299               641.8580               709.5214
 Red. masses --      4.6297                 1.9302                 1.5723
 Frc consts  --      0.9458                 0.4685                 0.4664
 IR Inten    --      2.9463                 1.0667                23.5149

                     25                     26                     27
                      A                      A                      A
 Frequencies --    713.8125               772.7987               791.1899
 Red. masses --      2.8909                 3.0358                 3.3906
 Frc consts  --      0.8679                 1.0682                 1.2505
 IR Inten    --      0.9273                22.1576                 8.7907

                     28                     29                     30
                      A                      A                      A
 Frequencies --    821.1138               838.0867               857.2629
 Red. masses --      3.2199                 2.9783                 2.6941
 Frc consts  --      1.2791                 1.2325                 1.1665
 IR Inten    --     29.2934                 6.3095                 6.1667

                     31                     32                     33
                      A                      A                      A
 Frequencies --    876.6069               903.9970               922.3472
 Red. masses --      2.3424                 2.7443                 3.0753
 Frc consts  --      1.0605                 1.3214                 1.5414
 IR Inten    --      9.1638                 3.5869                 7.6250

                     34                     35                     36
                      A                      A                      A
 Frequencies --    937.1560               958.0219               987.2079
 Red. masses --      3.4884                 2.1117                 2.7374
 Frc consts  --      1.8051                 1.1419                 1.5718
 IR Inten    --     24.7034                 9.4554                 7.5928

                     37                     38                     39
                      A                      A                      A
 Frequencies --   1005.1315              1023.7130              1036.6745
 Red. masses --      1.2406                 1.8096                 1.4692
 Frc consts  --      0.7384                 1.1173                 0.9303
 IR Inten    --      3.2223                 8.1378                15.1331

                     40                     41                     42
                      A                      A                      A
 Frequencies --   1049.2068              1062.9502              1078.0475
 Red. masses --      2.1857                 2.4791                 3.0088
 Frc consts  --      1.4176                 1.6503                 2.0602
 IR Inten    --     14.3122                 6.3613                22.0892

                     43                     44                     45
                      A                      A                      A
 Frequencies --   1092.7869              1114.3745              1157.1755
 Red. masses --      3.0140                 3.0203                 2.0748
 Frc consts  --      2.1206                 2.2098                 1.6369
 IR Inten    --     19.7385                43.8698                15.8336

                     46                     47                     48
                      A                      A                      A
 Frequencies --   1224.2210              1239.1998              1245.7610
 Red. masses --      1.2040                 1.3812                 1.9382
 Frc consts  --      1.0631                 1.2497                 1.7723
 IR Inten    --     11.3847                47.8654               149.8464

                     49                     50                     51
                      A                      A                      A
 Frequencies --   1274.7929              1285.7716              1288.2475
 Red. masses --      1.1439                 1.1770                 1.2034
 Frc consts  --      1.0953                 1.1465                 1.1767
 IR Inten    --      5.1775                15.4428                 7.9022

                     52                     53                     54
                      A                      A                      A
 Frequencies --   1306.7390              1324.6885              1344.7819
 Red. masses --      1.2427                 1.2375                 1.2781
 Frc consts  --      1.2503                 1.2794                 1.3618
 IR Inten    --     32.2485                11.0123                17.8430

                     55                     56                     57
                      A                      A                      A
 Frequencies --   1374.9305              1385.1159              1401.5442
 Red. masses --      1.3202                 1.3870                 1.1294
 Frc consts  --      1.4704                 1.5678                 1.3071
 IR Inten    --      3.7267                 2.4562                44.7548

                     58                     59                     60
                      A                      A                      A
 Frequencies --   1403.3773              1407.7910              1424.4253
 Red. masses --      1.4389                 1.4832                 1.4404
 Frc consts  --      1.6696                 1.7319                 1.7219
 IR Inten    --     10.6968                13.6184                 3.9007

                     61                     62                     63
                      A                      A                      A
 Frequencies --   1440.6794              1451.7448              1478.3955
 Red. masses --      1.3480                 1.1390                 1.1304
 Frc consts  --      1.6485                 1.4144                 1.4556
 IR Inten    --     19.9990                10.4347                 8.6961

                     64                     65                     66
                      A                      A                      A
 Frequencies --   1484.5947              1507.6753              1513.4293
 Red. masses --      1.0988                 1.0847                 1.0859
 Frc consts  --      1.4269                 1.4526                 1.4654
 IR Inten    --     14.0665                 2.4881                20.2358

                     67                     68                     69
                      A                      A                      A
 Frequencies --   1698.0258              1726.5811              1794.0663
 Red. masses --      7.3919                 6.9335                10.9836
 Frc consts  --     12.5572                12.1780                20.8292
 IR Inten    --     15.7629                 2.8780               304.0951

                     70                     71                     72
                      A                      A                      A
 Frequencies --   2964.1474              2980.8247              3006.2740
 Red. masses --      1.0705                 1.0644                 1.0923
 Frc consts  --      5.5414                 5.5721                 5.8166
 IR Inten    --     41.3289                21.9532                22.4281

                     73                     74                     75
                      A                      A                      A
 Frequencies --   3033.6077              3038.2016              3072.6612
 Red. masses --      1.0702                 1.0595                 1.0902
 Frc consts  --      5.8027                 5.7623                 6.0644
 IR Inten    --     30.6210                29.5914                14.0939

                     76                     77                     78
                      A                      A                      A
 Frequencies --   3081.5341              3094.9396              3111.7012
 Red. masses --      1.1017                 1.0905                 1.0851
 Frc consts  --      6.1637                 6.1542                 6.1903
 IR Inten    --      4.9895                13.8013                18.3124

                     79                     80                     81
                      A                      A                      A
 Frequencies --   3133.3669              3135.3153              3157.0567
 Red. masses --      1.0834                 1.0839                 1.0940
 Frc consts  --      6.2668                 6.2780                 6.4243
 IR Inten    --      5.1883                 6.9959                31.2996

                     82                     83                     84
                      A                      A                      A
 Frequencies --   3176.3677              3459.6728              3720.0401
 Red. masses --      1.0893                 1.0752                 1.0685
 Frc consts  --      6.4750                 7.5824                 8.7118
 IR Inten    --      7.0842                 2.5688                10.4297

 - Thermochemistry -
 -------------------
 Temperature   298.150 Kelvin.  Pressure   1.00000 Atm.
 Atom     1 has atomic number  8 and mass  15.99491

 Molecular mass:   213.10011 amu.
 Principal axes and moments of inertia in atomic units:
                           1         2         3
     Eigenvalues --  1817.968415685.075046602.47682
           X            0.99999   0.00312  -0.00328
           Y           -0.00315   0.99994  -0.01078
           Z            0.00324   0.01079   0.99994
 This molecule is an asymmetric top.
 Rotational symmetry number  1.
 Warning -- assumption of classical behavior for rotation
           may cause significant error
 Rotational temperatures (Kelvin)      0.04764     0.01524     0.01312
 Rotational constants (GHZ):           0.99272     0.31745     0.27334
 Zero-point vibrational energy     648967.5 (Joules/Mol)
                                  155.10697 (Kcal/Mol)
 Warning -- explicit consideration of  22 degrees of freedom as
           vibrations may cause significant error
 Vibrational temperatures:     44.40    46.82    57.12    91.15   101.86
          (Kelvin)            144.63   230.23   246.44   281.02   329.60
                              364.74   380.39   452.24   479.20   498.68
                              518.89   583.85   605.84   716.57   757.89
                              789.96   847.19   923.49  1020.84  1027.02
                             1111.88  1138.35  1181.40  1205.82  1233.41
                             1261.24  1300.65  1327.05  1348.36  1378.38
                             1420.37  1446.16  1472.89  1491.54  1509.57
                             1529.35  1551.07  1572.28  1603.34  1664.92
                             1761.38  1782.93  1792.37  1834.14  1849.94
                             1853.50  1880.11  1905.93  1934.84  1978.22
                             1992.87  2016.51  2019.15  2025.50  2049.43
                             2072.82  2088.74  2127.08  2136.00  2169.21
                             2177.49  2443.08  2484.17  2581.26  4264.75
                             4288.74  4325.36  4364.68  4371.29  4420.87
                             4433.64  4452.93  4477.04  4508.22  4511.02
                             4542.30  4570.08  4977.70  5352.31

 Zero-point correction=                           0.247179 (Hartree/Particle)
 Thermal correction to Energy=                    0.262559
 Thermal correction to Enthalpy=                  0.263503
 Thermal correction to Gibbs Free Energy=         0.202508
 Sum of electronic and zero-point Energies=           -745.351905
 Sum of electronic and thermal Energies=              -745.336525
 Sum of electronic and thermal Enthalpies=            -745.335581
 Sum of electronic and thermal Free Energies=         -745.396576

                     E (Thermal)             CV                S
                      KCal/Mol        Cal/Mol-Kelvin    Cal/Mol-Kelvin
 Total                  164.758             56.510            128.375
 Electronic               0.000              0.000              0.000
 Translational            0.889              2.981             41.973
 Rotational               0.889              2.981             32.590
 Vibrational            162.981             50.549             53.812
 Vibration     1          0.594              1.984              5.774
 Vibration     2          0.594              1.983              5.668
 Vibration     3          0.594              1.981              5.274
 Vibration     4          0.597              1.972              4.350
 Vibration     5          0.598              1.968              4.131
 Vibration     6          0.604              1.949              3.444
 Vibration     7          0.622              1.891              2.550
 Vibration     8          0.626              1.878              2.421
 Vibration     9          0.636              1.846              2.177
 Vibration    10          0.652              1.797              1.886
 Vibration    11          0.665              1.757              1.706
 Vibration    12          0.671              1.738              1.633
 Vibration    13          0.702              1.646              1.339
 Vibration    14          0.715              1.609              1.245
 Vibration    15          0.725              1.582              1.182
 Vibration    16          0.735              1.553              1.119
 Vibration    17          0.771              1.458              0.942
 Vibration    18          0.784              1.424              0.888
 Vibration    19          0.854              1.254              0.663
 Vibration    20          0.882              1.191              0.594
 Vibration    21          0.904              1.142              0.546
 Vibration    22          0.946              1.056              0.469

 Optimization completed.
    -- Stationary point found.
 Normal termination of Gaussian 16 at Sun May 28 16:52:07 2023.
