 Gaussian 16, Revision A.03,
 Gaussian 16:  ES64L-G16RevA.03 25-Dec-2016

 -----------------------------
 # opt freq b3lyp/6-31g(2df,p)
 -----------------------------

 -------------------
 Title Card Required
 -------------------
 Symbolic Z-matrix:
 Charge =  0 Multiplicity = 1

 SCF Done:  E(RB3LYP) =  -900.559901607     A.U. after   27 cycles
 SCF Done:  E(RB3LYP) =  -900.660493116     A.U. after   17 cycles
 SCF Done:  E(RB3LYP) =  -900.762801437     A.U. after   16 cycles
 SCF Done:  E(RB3LYP) =  -900.851443311     A.U. after   15 cycles
 SCF Done:  E(RB3LYP) =  -900.910391766     A.U. after   15 cycles
 SCF Done:  E(RB3LYP) =  -900.939741317     A.U. after   15 cycles
 SCF Done:  E(RB3LYP) =  -900.952025108     A.U. after   14 cycles
 SCF Done:  E(RB3LYP) =  -900.960183437     A.U. after   13 cycles
 SCF Done:  E(RB3LYP) =  -900.967725358     A.U. after   14 cycles
 SCF Done:  E(RB3LYP) =  -900.975463816     A.U. after   14 cycles
 SCF Done:  E(RB3LYP) =  -900.984207082     A.U. after   14 cycles
 SCF Done:  E(RB3LYP) =  -900.984732113     A.U. after   13 cycles
 SCF Done:  E(RB3LYP) =  -900.984968559     A.U. after   12 cycles
 SCF Done:  E(RB3LYP) =  -900.985069854     A.U. after   12 cycles
 SCF Done:  E(RB3LYP) =  -900.985116884     A.U. after   10 cycles
 SCF Done:  E(RB3LYP) =  -900.985140596     A.U. after   10 cycles
 SCF Done:  E(RB3LYP) =  -900.985146487     A.U. after    8 cycles
 SCF Done:  E(RB3LYP) =  -900.985148738     A.U. after    8 cycles
 SCF Done:  E(RB3LYP) =  -900.985149435     A.U. after    8 cycles
 Optimization completed.
    -- Stationary point found.
 Normal termination of Gaussian 16 at Mon May 29 01:46:27 2023.

 ----------------------------------------------------------------------
 #N Geom=AllCheck Guess=TCheck SCRF=Check GenChk RB3LYP/6-31G(2df,p) Fr
 eq
 ----------------------------------------------------------------------

 Structure from the checkpoint file:  "OdC1CdCCdCC2dCNdCC2dCC2dCCdCCdCC2dCCdC1.chk"
 -------------------
 Title Card Required
 -------------------
 Charge =  0 Multiplicity = 1

                         Standard orientation:
 ---------------------------------------------------------------------
 Center     Atomic      Atomic             Coordinates (Angstroms)
 Number     Number       Type             X           Y           Z
 ---------------------------------------------------------------------
      1          8           0        4.973134    1.520352    0.161980
      2          6           0        3.769664    1.417260   -0.007795
      3          6           0        2.770913    2.313412    0.645412
      4          6           0        1.597136    2.539579    0.030579
      5          6           0        0.266545    2.813035    0.545006
      6          6           0       -0.696420    2.153312   -0.135722
      7          6           0       -2.092418    1.839782    0.063796
      8          6           0       -3.189617    2.610446    0.316702
      9          7           0       -4.401991    1.962227    0.005038
     10          6           0       -4.081547    0.818508   -0.523276
     11          6           0       -2.633430    0.579444   -0.476844
     12          6           0       -2.041276   -0.618312   -0.714475
     13          6           0       -0.824049   -1.211000   -0.120136
     14          6           0       -0.818069   -1.393245    1.231502
     15          6           0       -0.132000   -2.457574    1.912794
     16          6           0        0.119510   -3.693473    1.389320
     17          6           0       -0.133556   -4.147079    0.043718
     18          6           0       -0.146504   -3.368832   -1.065292
     19          6           0        0.210475   -1.947162   -0.919246
     20          6           0        1.448592   -1.479649   -1.198236
     21          6           0        1.982918   -0.249135   -0.658704
     22          6           0        3.230544    0.251605   -0.792944
     23          1           0        2.988772    2.625545    1.662935
     24          1           0        1.564463    2.226836   -1.009183
     25          1           0        0.102545    3.290802    1.505719
     26          1           0       -0.333488    1.658913   -1.036258
     27          1           0       -3.210928    3.645008    0.631964
     28          1           0       -4.828379    0.089009   -0.819724
     29          1           0       -2.615749   -1.330550   -1.310515
     30          1           0       -1.501544   -0.796412    1.831942
     31          1           0        0.018142   -2.330627    2.981722
     32          1           0        0.460785   -4.456577    2.084378
     33          1           0       -0.293687   -5.215864   -0.078395
     34          1           0       -0.372944   -3.800501   -2.037426
     35          1           0        2.122743   -2.133194   -1.749216
     36          1           0        1.303376    0.259542    0.010208
     37          1           0        3.980304   -0.255862   -1.396201
 ---------------------------------------------------------------------

 SCF Done:  E(RB3LYP) =  -900.985149435     A.U. after    1 cycles

 The electronic state is 1-A.
 Alpha  occ. eigenvalues --  -19.11085 -14.32446 -10.25930 -10.24269 -10.23386
 Alpha  occ. eigenvalues --  -10.22513 -10.22391 -10.21877 -10.21790 -10.21376
 Alpha  occ. eigenvalues --  -10.21360 -10.21265 -10.21205 -10.21196 -10.21038
 Alpha  occ. eigenvalues --  -10.20592 -10.20469 -10.20202 -10.20145 -10.19761
 Alpha  occ. eigenvalues --  -10.19606 -10.18456  -1.01923  -0.95315  -0.88462
 Alpha  occ. eigenvalues --   -0.83746  -0.82790  -0.81845  -0.79619  -0.77688
 Alpha  occ. eigenvalues --   -0.77212  -0.73127  -0.71898  -0.68233  -0.65554
 Alpha  occ. eigenvalues --   -0.64545  -0.62249  -0.59873  -0.57794  -0.56083
 Alpha  occ. eigenvalues --   -0.55900  -0.53859  -0.53584  -0.51823  -0.51062
 Alpha  occ. eigenvalues --   -0.50665  -0.47769  -0.47046  -0.46300  -0.45902
 Alpha  occ. eigenvalues --   -0.45136  -0.44431  -0.43044  -0.41351  -0.40700
 Alpha  occ. eigenvalues --   -0.40283  -0.39381  -0.39076  -0.38749  -0.38275
 Alpha  occ. eigenvalues --   -0.37797  -0.37119  -0.36797  -0.36189  -0.34820
 Alpha  occ. eigenvalues --   -0.33096  -0.31343  -0.29361  -0.27976  -0.26941
 Alpha  occ. eigenvalues --   -0.26062  -0.24553  -0.24070  -0.22819  -0.21150
 Alpha virt. eigenvalues --   -0.09727  -0.07764  -0.05914  -0.03770  -0.00743
 Alpha virt. eigenvalues --    0.01512   0.03893   0.05677   0.07108   0.08003
 Alpha virt. eigenvalues --    0.08833   0.09781   0.10928   0.11261   0.11745

 Mulliken charges:
               1
     1  O   -0.347897
     2  C    0.389683
     3  C   -0.255636
     4  C   -0.032212
     5  C   -0.172371
     6  C   -0.083301
     7  C    0.055463
     8  C   -0.122068
     9  N   -0.234732
    10  C   -0.076141
    11  C    0.226526
    12  C   -0.264081
    13  C    0.062642
    14  C   -0.091078
    15  C   -0.108294
    16  C   -0.090051
    17  C   -0.042640
    18  C   -0.200721
    19  C    0.125515
    20  C   -0.150034
    21  C   -0.045172
    22  C   -0.237717
    23  H    0.109007
    24  H    0.111531
    25  H    0.106307
    26  H    0.101751
    27  H    0.119224
    28  H    0.116831
    29  H    0.132617
    30  H    0.123236
    31  H    0.107250
    32  H    0.107016
    33  H    0.107446
    34  H    0.115869
    35  H    0.101232
    36  H    0.129401
    37  H    0.105598
 Sum of Mulliken charges =  -0.00000

 Dipole moment (field-independent basis, Debye):
    X=             -2.5175    Y=             -4.7403    Z=             -0.2827  Tot=              5.3748
 Quadrupole moment (field-independent basis, Debye-Ang):
   XX=           -164.5828   YY=           -116.2699   ZZ=           -117.3975
   XY=              0.4382   XZ=              0.1991   YZ=              3.3890

  Exact polarizability: 330.238  -3.953 277.418   8.738  15.607 159.284
 Approx polarizability: 609.160  -6.950 455.160  34.617  39.603 302.447

                      1                      2                      3
                      A                      A                      A
 Frequencies --     50.1511                52.1713                70.1404
 Red. masses --      4.9869                 5.7866                 6.2871
 Frc consts  --      0.0074                 0.0093                 0.0182
 IR Inten    --      0.4241                 1.6343                 1.5996

                      4                      5                      6
                      A                      A                      A
 Frequencies --     98.3043               109.7862               127.0248
 Red. masses --      6.3045                 4.5795                 3.5234
 Frc consts  --      0.0359                 0.0325                 0.0335
 IR Inten    --      2.1086                 0.9268                 1.9261

                      7                      8                      9
                      A                      A                      A
 Frequencies --    147.7546               172.3026               183.3019
 Red. masses --      5.0895                 5.3045                 4.6838
 Frc consts  --      0.0655                 0.0928                 0.0927
 IR Inten    --      0.8156                 0.1975                 5.9030

                     10                     11                     12
                      A                      A                      A
 Frequencies --    202.5531               223.2532               230.3718
 Red. masses --      3.7087                 2.7114                 3.4941
 Frc consts  --      0.0897                 0.0796                 0.1093
 IR Inten    --      4.1885                 0.2341                 1.9290

                     13                     14                     15
                      A                      A                      A
 Frequencies --    257.8441               273.8052               301.6375
 Red. masses --      3.3184                 3.6600                 3.3746
 Frc consts  --      0.1300                 0.1617                 0.1809
 IR Inten    --      0.4460                 9.5140                 3.9332

                     16                     17                     18
                      A                      A                      A
 Frequencies --    326.6016               340.9892               372.9845
 Red. masses --      3.6167                 3.8872                 3.5591
 Frc consts  --      0.2273                 0.2663                 0.2917
 IR Inten    --      0.9138                 0.6771                 1.2803

                     19                     20                     21
                      A                      A                      A
 Frequencies --    381.1049               403.5220               419.1112
 Red. masses --      3.9564                 3.8987                 3.6042
 Frc consts  --      0.3386                 0.3740                 0.3730
 IR Inten    --      5.2246                 0.8207                 7.1091

                     22                     23                     24
                      A                      A                      A
 Frequencies --    436.6963               491.7539               495.9714
 Red. masses --      3.9670                 4.4441                 4.2637
 Frc consts  --      0.4457                 0.6332                 0.6179
 IR Inten    --     16.9022                 5.4804                 2.5612

                     25                     26                     27
                      A                      A                      A
 Frequencies --    508.7845               541.1111               588.4741
 Red. masses --      4.4170                 4.5613                 4.2472
 Frc consts  --      0.6737                 0.7869                 0.8666
 IR Inten    --      1.4767                13.0725                 4.1970

                     28                     29                     30
                      A                      A                      A
 Frequencies --    609.1285               614.1628               650.9858
 Red. masses --      3.4778                 3.9270                 3.6683
 Frc consts  --      0.7603                 0.8727                 0.9159
 IR Inten    --     20.0854                 6.6309                 4.6948

                     31                     32                     33
                      A                      A                      A
 Frequencies --    687.0087               694.2702               723.6527
 Red. masses --      3.2053                 3.7750                 1.5101
 Frc consts  --      0.8913                 1.0721                 0.4659
 IR Inten    --      5.5892                14.1837                32.0641

                     34                     35                     36
                      A                      A                      A
 Frequencies --    740.3212               770.4624               781.8399
 Red. masses --      3.7365                 3.6522                 3.8410
 Frc consts  --      1.2066                 1.2774                 1.3833
 IR Inten    --     13.9137                23.8497                12.0569

                     37                     38                     39
                      A                      A                      A
 Frequencies --    813.2082               833.2478               841.0862
 Red. masses --      1.6322                 3.5102                 2.3938
 Frc consts  --      0.6359                 1.4359                 0.9978
 IR Inten    --     25.9393                 1.0448                11.3774

                     40                     41                     42
                      A                      A                      A
 Frequencies --    853.7260               859.8814               875.2620
 Red. masses --      2.0915                 2.0175                 2.6189
 Frc consts  --      0.8981                 0.8789                 1.1821
 IR Inten    --      8.0342                18.0645                 2.2263

                     43                     44                     45
                      A                      A                      A
 Frequencies --    886.2701               892.7486               902.9475
 Red. masses --      1.8729                 2.6974                 2.2649
 Frc consts  --      0.8668                 1.2666                 1.0880
 IR Inten    --      9.8369                 8.4748                51.4687

                     46                     47                     48
                      A                      A                      A
 Frequencies --    910.2194               918.6911               922.0035
 Red. masses --      2.2160                 1.6429                 1.9593
 Frc consts  --      1.0817                 0.8170                 0.9813
 IR Inten    --     28.0112                25.8663                 8.4374

                     49                     50                     51
                      A                      A                      A
 Frequencies --    952.1590               959.8000               982.4855
 Red. masses --      1.9073                 1.9392                 1.4981
 Frc consts  --      1.0188                 1.0525                 0.8520
 IR Inten    --      6.0377                10.0675                 1.0272

                     52                     53                     54
                      A                      A                      A
 Frequencies --    990.0513              1004.8403              1046.2218
 Red. masses --      1.1522                 1.2854                 2.0155
 Frc consts  --      0.6654                 0.7647                 1.2998
 IR Inten    --     15.0422                 0.0533                 9.5266

                     55                     56                     57
                      A                      A                      A
 Frequencies --   1054.2495              1063.7304              1072.7802
 Red. masses --      1.2652                 2.4710                 1.2798
 Frc consts  --      0.8285                 1.6474                 0.8678
 IR Inten    --     38.9251                48.9899                30.2452

                     58                     59                     60
                      A                      A                      A
 Frequencies --   1117.0704              1127.1386              1136.5659
 Red. masses --      3.5610                 2.4075                 2.7588
 Frc consts  --      2.6181                 1.8020                 2.0997
 IR Inten    --     25.7564                 3.2830                14.1007

                     61                     62                     63
                      A                      A                      A
 Frequencies --   1161.9457              1175.6985              1201.1245
 Red. masses --      3.8843                 2.4317                 2.0036
 Frc consts  --      3.0898                 1.9804                 1.7031
 IR Inten    --      6.4233                11.1070                12.3553

                     64                     65                     66
                      A                      A                      A
 Frequencies --   1207.1370              1219.6750              1222.6351
 Red. masses --      1.1799                 1.5464                 2.8102
 Frc consts  --      1.0130                 1.3554                 2.4751
 IR Inten    --      0.7491                27.5554                53.5153

                     67                     68                     69
                      A                      A                      A
 Frequencies --   1253.8085              1262.6703              1278.2774
 Red. masses --      1.1519                 1.5760                 1.4884
 Frc consts  --      1.0669                 1.4804                 1.4329
 IR Inten    --      1.6240                 8.6932                11.2744

                     70                     71                     72
                      A                      A                      A
 Frequencies --   1299.3510              1306.6044              1308.6761
 Red. masses --      1.6209                 1.4134                 1.8429
 Frc consts  --      1.6123                 1.4216                 1.8596
 IR Inten    --      4.6141                23.8414                20.5790

                     73                     74                     75
                      A                      A                      A
 Frequencies --   1346.1765              1363.1554              1371.2354
 Red. masses --      1.3340                 1.5426                 1.3651
 Frc consts  --      1.4243                 1.6888                 1.5123
 IR Inten    --      2.5223                 7.9537                15.0393

                     76                     77                     78
                      A                      A                      A
 Frequencies --   1383.9348              1402.2757              1437.1421
 Red. masses --      1.7530                 1.4948                 1.3133
 Frc consts  --      1.9782                 1.7319                 1.5981
 IR Inten    --     15.9879                 6.2697                 6.1132

                     79                     80                     81
                      A                      A                      A
 Frequencies --   1465.0363              1513.6937              1524.9467
 Red. masses --      1.7160                 4.9970                 7.6293
 Frc consts  --      2.1701                 6.7459                10.4531
 IR Inten    --      0.3390               146.6305                 2.2458

                     82                     83                     84
                      A                      A                      A
 Frequencies --   1591.0072              1604.3400              1619.1923
 Red. masses --      4.7557                 6.5562                 6.0025
 Frc consts  --      7.0926                 9.9425                 9.2722
 IR Inten    --     25.1870                21.9860                 8.5984

                     85                     86                     87
                      A                      A                      A
 Frequencies --   1639.8755              1644.8066              1661.8755
 Red. masses --      7.0940                 6.2389                 5.5873
 Frc consts  --     11.2400                 9.9446                 9.0918
 IR Inten    --     68.8259                48.0386               161.4931

                     88                     89                     90
                      A                      A                      A
 Frequencies --   1664.1011              1670.3223              1730.4496
 Red. masses --      5.3018                 6.6047                11.8089
 Frc consts  --      8.6503                10.8568                20.8343
 IR Inten    --     70.1434                11.0859               362.3388

                     91                     92                     93
                      A                      A                      A
 Frequencies --   3104.1094              3115.9349              3142.6328
 Red. masses --      1.0852                 1.0838                 1.0823
 Frc consts  --      6.1605                 6.1997                 6.2978
 IR Inten    --      6.0813                 7.8291                 1.3740

                     94                     95                     96
                      A                      A                      A
 Frequencies --   3145.0575              3147.9518              3153.6763
 Red. masses --      1.0882                 1.0848                 1.0857
 Frc consts  --      6.3418                 6.3335                 6.3619
 IR Inten    --      7.0828                 0.8731                 4.1020

                     97                     98                     99
                      A                      A                      A
 Frequencies --   3154.8855              3159.6057              3164.3449
 Red. masses --      1.0874                 1.0897                 1.0931
 Frc consts  --      6.3768                 6.4093                 6.4488
 IR Inten    --      3.7606                12.2659                22.0119

                    100                    101                    102
                      A                      A                      A
 Frequencies --   3172.5354              3174.2970              3183.7856
 Red. masses --      1.0895                 1.0941                 1.0912
 Frc consts  --      6.4607                 6.4953                 6.5169
 IR Inten    --      4.7374                27.8438                10.7760

                    103                    104                    105
                      A                      A                      A
 Frequencies --   3186.9021              3227.8558              3230.5987
 Red. masses --      1.0936                 1.0952                 1.0850
 Frc consts  --      6.5441                 6.7232                 6.6717
 IR Inten    --     10.4342                 6.3151                 0.4866

 - Thermochemistry -
 -------------------
 Temperature   298.150 Kelvin.  Pressure   1.00000 Atm.
 Atom     1 has atomic number  8 and mass  15.99491

 Molecular mass:   285.11536 amu.
 Principal axes and moments of inertia in atomic units:
                           1         2         3
     Eigenvalues --  5536.621317016.57994**********
           X            1.00000  -0.00147  -0.00061
           Y            0.00148   0.99999   0.00331
           Z            0.00060  -0.00331   0.99999
 This molecule is an asymmetric top.
 Rotational symmetry number  1.
 Warning -- assumption of classical behavior for rotation
           may cause significant error
 Rotational temperatures (Kelvin)      0.01564     0.01234     0.00777
 Rotational constants (GHZ):           0.32596     0.25721     0.16199
 Zero-point vibrational energy     760173.4 (Joules/Mol)
                                  181.68580 (Kcal/Mol)
 Warning -- explicit consideration of  29 degrees of freedom as
           vibrations may cause significant error
 Vibrational temperatures:     72.16    75.06   100.92   141.44   157.96
          (Kelvin)            182.76   212.59   247.91   263.73   291.43
                              321.21   331.45   370.98   393.94   433.99
                              469.91   490.61   536.64   548.32   580.58
                              603.01   628.31   707.52   713.59   732.03
                              778.54   846.68   876.40   883.64   936.62
                              988.45   998.90  1041.17  1065.16  1108.52
                             1124.89  1170.03  1198.86  1210.14  1228.32
                             1237.18  1259.31  1275.15  1284.47  1299.14
                             1309.60  1321.79  1326.56  1369.94  1380.94
                             1413.58  1424.46  1445.74  1505.28  1516.83
                             1530.47  1543.49  1607.22  1621.70  1635.26
                             1671.78  1691.57  1728.15  1736.80  1754.84
                             1759.10  1803.95  1816.70  1839.16  1869.48
                             1879.91  1882.89  1936.85  1961.28  1972.90
                             1991.17  2017.56  2067.73  2107.86  2177.87
                             2194.06  2289.10  2308.29  2329.66  2359.42
                             2366.51  2391.07  2394.27  2403.22  2489.73
                             4466.12  4483.14  4521.55  4525.04  4529.20
                             4537.44  4539.18  4545.97  4552.79  4564.57
                             4567.11  4580.76  4585.24  4644.16  4648.11

 Zero-point correction=                           0.289535 (Hartree/Particle)
 Thermal correction to Energy=                    0.307489
 Thermal correction to Enthalpy=                  0.308433
 Thermal correction to Gibbs Free Energy=         0.244143
 Sum of electronic and zero-point Energies=           -900.695615
 Sum of electronic and thermal Energies=              -900.677660
 Sum of electronic and thermal Enthalpies=            -900.676716
 Sum of electronic and thermal Free Energies=         -900.741006

                     E (Thermal)             CV                S
                      KCal/Mol        Cal/Mol-Kelvin    Cal/Mol-Kelvin
 Total                  192.952             71.947            135.309
 Electronic               0.000              0.000              0.000
 Translational            0.889              2.981             42.841
 Rotational               0.889              2.981             34.425
 Vibrational            191.175             65.986             58.043
 Vibration     1          0.595              1.978              4.811
 Vibration     2          0.596              1.977              4.733
 Vibration     3          0.598              1.968              4.149
 Vibration     4          0.604              1.950              3.488
 Vibration     5          0.606              1.941              3.273
 Vibration     6          0.611              1.926              2.991
 Vibration     7          0.617              1.905              2.701
 Vibration     8          0.626              1.877              2.410
 Vibration     9          0.631              1.863              2.295
 Vibration    10          0.639              1.836              2.110
 Vibration    11          0.649              1.806              1.933
 Vibration    12          0.652              1.795              1.876
 Vibration    13          0.667              1.750              1.676
 Vibration    14          0.676              1.722              1.572
 Vibration    15          0.694              1.671              1.408
 Vibration    16          0.710              1.622              1.277
 Vibration    17          0.721              1.594              1.208
 Vibration    18          0.744              1.528              1.067
 Vibration    19          0.751              1.510              1.035
 Vibration    20          0.769              1.463              0.950
 Vibration    21          0.782              1.429              0.895
 Vibration    22          0.797              1.390              0.837
 Vibration    23          0.847              1.268              0.679
 Vibration    24          0.852              1.259              0.668
 Vibration    25          0.864              1.231              0.637
 Vibration    26          0.896              1.159              0.563
 Vibration    27          0.946              1.056              0.470
 Vibration    28          0.968              1.012              0.434
 Vibration    29          0.974              1.002              0.426

                           ! Non-Optimized Parameters !
 Normal termination of Gaussian 16 at Mon May 29 09:00:50 2023.
