 Gaussian 16, Revision A.03,
 Gaussian 16:  ES64L-G16RevA.03 25-Dec-2016

 -----------------------------
 # opt freq b3lyp/6-31g(2df,p)
 -----------------------------

 -------------------
 Title Card Required
 -------------------
 Symbolic Z-matrix:
 Charge =  0 Multiplicity = 1

 SCF Done:  E(RB3LYP) =  -555.583417374     A.U. after   16 cycles
 SCF Done:  E(RB3LYP) =  -555.620376547     A.U. after   14 cycles
 SCF Done:  E(RB3LYP) =  -555.637763288     A.U. after   14 cycles
 SCF Done:  E(RB3LYP) =  -555.641449790     A.U. after   14 cycles
 SCF Done:  E(RB3LYP) =  -555.643301117     A.U. after   14 cycles
 SCF Done:  E(RB3LYP) =  -555.643514954     A.U. after   14 cycles
 SCF Done:  E(RB3LYP) =  -555.643876012     A.U. after   12 cycles
 SCF Done:  E(RB3LYP) =  -555.643946249     A.U. after   11 cycles
 SCF Done:  E(RB3LYP) =  -555.643968138     A.U. after   10 cycles
 SCF Done:  E(RB3LYP) =  -555.643972213     A.U. after    9 cycles
 SCF Done:  E(RB3LYP) =  -555.643975116     A.U. after    9 cycles
 SCF Done:  E(RB3LYP) =  -555.643975673     A.U. after    7 cycles
 SCF Done:  E(RB3LYP) =  -555.643975909     A.U. after    7 cycles
 Optimization completed.
    -- Stationary point found.
 Normal termination of Gaussian 16 at Sun May 28 10:07:47 2023.

 ----------------------------------------------------------------------
 #N Geom=AllCheck Guess=TCheck SCRF=Check GenChk RB3LYP/6-31G(2df,p) Fr
 eq
 ----------------------------------------------------------------------

 Structure from the checkpoint file:  "OdC1CdCN2CdCdCdCCC2CC1.chk"
 -------------------
 Title Card Required
 -------------------
 Charge =  0 Multiplicity = 1

                         Standard orientation:
 ---------------------------------------------------------------------
 Center     Atomic      Atomic             Coordinates (Angstroms)
 Number     Number       Type             X           Y           Z
 ---------------------------------------------------------------------
      1          8           0       -3.545670   -0.790524   -0.155080
      2          6           0       -2.482884   -0.244515    0.078407
      3          6           0       -2.130604    1.048999   -0.545340
      4          6           0       -0.913361    1.632487   -0.527593
      5          7           0        0.277276    0.989652   -0.218325
      6          6           0        1.236916    1.693320    0.522071
      7          6           0        2.420555    1.119854    0.738103
      8          6           0        2.952998    0.011328    0.448888
      9          6           0        2.914073   -1.114485   -0.233938
     10          6           0        1.677664   -1.081736   -1.130042
     11          6           0        0.354494   -0.476404   -0.534247
     12          6           0       -0.188636   -1.326490    0.620104
     13          6           0       -1.529895   -0.786593    1.153360
     14          1           0       -2.964107    1.593385   -0.976245
     15          1           0       -0.799607    2.682809   -0.789814
     16          1           0        0.910663    2.663658    0.878474
     17          1           0        3.625098   -1.928550   -0.252867
     18          1           0        1.407980   -2.098530   -1.440460
     19          1           0        1.916592   -0.533636   -2.049429
     20          1           0       -0.360700   -0.570047   -1.357096
     21          1           0        0.542659   -1.385664    1.431992
     22          1           0       -0.324352   -2.344847    0.237124
     23          1           0       -1.329799    0.031826    1.854834
     24          1           0       -2.067913   -1.568369    1.693766
 ---------------------------------------------------------------------

 SCF Done:  E(RB3LYP) =  -555.643975909     A.U. after    1 cycles

 The electronic state is 1-A.
 Alpha  occ. eigenvalues --  -19.11328 -14.38767 -10.25902 -10.24793 -10.24537
 Alpha  occ. eigenvalues --  -10.24097 -10.21377 -10.20660 -10.20465 -10.19751
 Alpha  occ. eigenvalues --  -10.18763 -10.18484 -10.18086  -1.02292  -0.97837
 Alpha  occ. eigenvalues --   -0.83749  -0.81912  -0.77907  -0.76646  -0.69888
 Alpha  occ. eigenvalues --   -0.68296  -0.65091  -0.62384  -0.56552  -0.54969
 Alpha  occ. eigenvalues --   -0.52870  -0.49054  -0.48644  -0.48200  -0.46810
 Alpha  occ. eigenvalues --   -0.44643  -0.43976  -0.42673  -0.41104  -0.39994
 Alpha  occ. eigenvalues --   -0.39151  -0.37897  -0.37594  -0.35586  -0.34790
 Alpha  occ. eigenvalues --   -0.34179  -0.31285  -0.26358  -0.25840  -0.23497
 Alpha  occ. eigenvalues --   -0.19790
 Alpha virt. eigenvalues --   -0.05971  -0.04284  -0.02099   0.05775   0.08144
 Alpha virt. eigenvalues --    0.09745   0.11135   0.11473   0.12973   0.13635
 Alpha virt. eigenvalues --    0.14200   0.15070   0.16392   0.16955   0.17039

 Mulliken charges:
               1
     1  O   -0.337700
     2  C    0.344887
     3  C   -0.231133
     4  C    0.005027
     5  N   -0.056542
     6  C   -0.068761
     7  C   -0.116766
     8  C    0.185546
     9  C   -0.268669
    10  C   -0.262574
    11  C   -0.004994
    12  C   -0.199666
    13  C   -0.312905
    14  H    0.109400
    15  H    0.123786
    16  H    0.128290
    17  H    0.119985
    18  H    0.119149
    19  H    0.130296
    20  H    0.117412
    21  H    0.121852
    22  H    0.113407
    23  H    0.119034
    24  H    0.121639
 Sum of Mulliken charges =  -0.00000

 Dipole moment (field-independent basis, Debye):
    X=              2.4356    Y=              0.6286    Z=             -0.4206  Tot=              2.5504
 Quadrupole moment (field-independent basis, Debye-Ang):
   XX=            -92.9180   YY=            -69.2048   ZZ=            -74.3427
   XY=             -8.9814   XZ=             -3.2054   YZ=              0.0060

  Exact polarizability: 180.207 -13.555 129.612   3.880   7.069  84.352
 Approx polarizability: 312.408 -31.990 253.211  12.705  28.681 140.027

                      1                      2                      3
                      A                      A                      A
 Frequencies --     75.0568               104.0349               137.1396
 Red. masses --      6.0360                 5.9444                 3.7375
 Frc consts  --      0.0200                 0.0379                 0.0414
 IR Inten    --      4.4189                 2.8236                 1.7624

                      4                      5                      6
                      A                      A                      A
 Frequencies --    170.4561               223.2768               253.5304
 Red. masses --      2.5230                 3.4270                 2.7235
 Frc consts  --      0.0432                 0.1007                 0.1031
 IR Inten    --      1.2789                 1.6713                18.9810

                      7                      8                      9
                      A                      A                      A
 Frequencies --    284.7905               290.7372               362.4725
 Red. masses --      4.8243                 2.7851                 4.2133
 Frc consts  --      0.2305                 0.1387                 0.3262
 IR Inten    --      7.7727                 5.3862                11.3240

                     10                     11                     12
                      A                      A                      A
 Frequencies --    367.4309               451.9471               477.9211
 Red. masses --      3.9039                 4.4457                 4.8346
 Frc consts  --      0.3105                 0.5350                 0.6506
 IR Inten    --     10.3283                14.8061                 8.9847

                     13                     14                     15
                      A                      A                      A
 Frequencies --    502.7547               511.4160               554.1598
 Red. masses --      3.1360                 3.4574                 6.1059
 Frc consts  --      0.4670                 0.5328                 1.1048
 IR Inten    --      0.4227                 2.6177                11.4997

                     16                     17                     18
                      A                      A                      A
 Frequencies --    604.0615               644.9059               670.6915
 Red. masses --      6.3988                 4.0211                 2.8872
 Frc consts  --      1.3757                 0.9854                 0.7652
 IR Inten    --     40.5471                 9.8048                 1.7790

                     19                     20                     21
                      A                      A                      A
 Frequencies --    700.4137               717.6784               753.6938
 Red. masses --      2.0951                 2.5503                 2.0681
 Frc consts  --      0.6056                 0.7739                 0.6922
 IR Inten    --     20.1753                11.0838                22.2269

                     22                     23                     24
                      A                      A                      A
 Frequencies --    797.0587               830.8221               865.9033
 Red. masses --      2.0413                 1.8052                 1.5327
 Frc consts  --      0.7641                 0.7342                 0.6771
 IR Inten    --     21.9402                 6.0155                19.7615

                     25                     26                     27
                      A                      A                      A
 Frequencies --    883.0440               899.1006               922.8532
 Red. masses --      2.2054                 2.9908                 2.4539
 Frc consts  --      1.0132                 1.4245                 1.2313
 IR Inten    --     10.5852                 2.3511                12.9874

                     28                     29                     30
                      A                      A                      A
 Frequencies --    955.7313              1000.7308              1009.8936
 Red. masses --      1.3506                 2.3538                 2.8933
 Frc consts  --      0.7268                 1.3888                 1.7386
 IR Inten    --     89.1570                 7.5021                20.3158

                     31                     32                     33
                      A                      A                      A
 Frequencies --   1042.0860              1063.7502              1088.8586
 Red. masses --      2.0894                 2.1783                 2.2938
 Frc consts  --      1.3369                 1.4522                 1.6023
 IR Inten    --      3.4109                 7.9185                 4.1382

                     34                     35                     36
                      A                      A                      A
 Frequencies --   1115.9341              1178.5945              1193.4927
 Red. masses --      2.2632                 1.5065                 1.7663
 Frc consts  --      1.6606                 1.2330                 1.4824
 IR Inten    --     14.7047                99.6442                57.7554

                     37                     38                     39
                      A                      A                      A
 Frequencies --   1207.6114              1245.2377              1272.2600
 Red. masses --      1.5496                 1.4112                 1.3671
 Frc consts  --      1.3315                 1.2893                 1.3038
 IR Inten    --     40.8419                10.1734                57.8409

                     40                     41                     42
                      A                      A                      A
 Frequencies --   1276.5084              1299.9066              1325.4149
 Red. masses --      1.5373                 1.9493                 1.5241
 Frc consts  --      1.4759                 1.9407                 1.5775
 IR Inten    --     56.9529                16.6514                40.6113

                     43                     44                     45
                      A                      A                      A
 Frequencies --   1333.6136              1349.6994              1389.6522
 Red. masses --      1.2513                 1.4090                 1.3942
 Frc consts  --      1.3112                 1.5123                 1.5863
 IR Inten    --      2.1444                 6.5489                14.6496

                     46                     47                     48
                      A                      A                      A
 Frequencies --   1407.5945              1427.3809              1458.0293
 Red. masses --      1.4330                 1.5810                 1.4138
 Frc consts  --      1.6729                 1.8979                 1.7708
 IR Inten    --     25.7207                 9.8786                59.4261

                     49                     50                     51
                      A                      A                      A
 Frequencies --   1470.0947              1475.7657              1492.6819
 Red. masses --      1.1536                 1.1046                 1.1054
 Frc consts  --      1.4689                 1.4174                 1.4512
 IR Inten    --     25.0260                 6.6176                 4.1582

                     52                     53                     54
                      A                      A                      A
 Frequencies --   1637.2709              1656.4240              1754.0089
 Red. masses --      6.9315                 6.3918                11.0186
 Frc consts  --     10.9475                10.3327                19.9729
 IR Inten    --    325.2055                48.9381               299.3867

                     55                     56                     57
                      A                      A                      A
 Frequencies --   2093.8795              3021.8812              3037.3790
 Red. masses --     11.1016                 1.0598                 1.0648
 Frc consts  --     28.6774                 5.7018                 5.7878
 IR Inten    --    127.1882                21.4661                11.5174

                     58                     59                     60
                      A                      A                      A
 Frequencies --   3041.0231              3055.0134              3061.9295
 Red. masses --      1.0635                 1.0837                 1.1015
 Frc consts  --      5.7946                 5.9590                 6.0846
 IR Inten    --     12.5246                 4.8888                16.4601

                     61                     62                     63
                      A                      A                      A
 Frequencies --   3091.1704              3113.9353              3137.4397
 Red. masses --      1.0987                 1.0997                 1.0881
 Frc consts  --      6.1858                 6.2827                 6.3106
 IR Inten    --     17.6652                16.5046                18.2588

                     64                     65                     66
                      A                      A                      A
 Frequencies --   3186.4516              3192.5046              3218.5752
 Red. masses --      1.0904                 1.0917                 1.0935
 Frc consts  --      6.5232                 6.5555                 6.6740
 IR Inten    --      7.4098                 5.6641                 0.9674

 - Thermochemistry -
 -------------------
 Temperature   298.150 Kelvin.  Pressure   1.00000 Atm.
 Atom     1 has atomic number  8 and mass  15.99491

 Molecular mass:   173.08406 amu.
 Principal axes and moments of inertia in atomic units:
                           1         2         3
     Eigenvalues --  1049.590492910.899493394.49499
           X            0.99968  -0.02293  -0.01095
           Y            0.02286   0.99971  -0.00692
           Z            0.01111   0.00667   0.99992
 This molecule is an asymmetric top.
 Rotational symmetry number  1.
 Warning -- assumption of classical behavior for rotation
           may cause significant error
 Rotational temperatures (Kelvin)      0.08252     0.02976     0.02552
 Rotational constants (GHZ):           1.71947     0.61999     0.53167
 Zero-point vibrational energy     511025.3 (Joules/Mol)
                                  122.13798 (Kcal/Mol)
 Warning -- explicit consideration of  16 degrees of freedom as
           vibrations may cause significant error
 Vibrational temperatures:    107.99   149.68   197.31   245.25   321.25
          (Kelvin)            364.77   409.75   418.31   521.52   528.65
                              650.25   687.62   723.35   735.81   797.31
                              869.11   927.88   964.98  1007.74  1032.58
                             1084.40  1146.79  1195.37  1245.84  1270.50
                             1293.61  1327.78  1375.08  1439.83  1453.01
                             1499.33  1530.50  1566.62  1605.58  1695.73
                             1717.17  1737.48  1791.62  1830.50  1836.61
                             1870.28  1906.98  1918.77  1941.92  1999.40
                             2025.21  2053.68  2097.78  2115.14  2123.30
                             2147.64  2355.67  2383.22  2523.63  3012.63
                             4347.81  4370.11  4375.35  4395.48  4405.43
                             4447.50  4480.26  4514.08  4584.59  4593.30
                             4630.81

 Zero-point correction=                           0.194639 (Hartree/Particle)
 Thermal correction to Energy=                    0.205463
 Thermal correction to Enthalpy=                  0.206407
 Thermal correction to Gibbs Free Energy=         0.158484
 Sum of electronic and zero-point Energies=           -555.449337
 Sum of electronic and thermal Energies=              -555.438513
 Sum of electronic and thermal Enthalpies=            -555.437569
 Sum of electronic and thermal Free Energies=         -555.485492

                     E (Thermal)             CV                S
                      KCal/Mol        Cal/Mol-Kelvin    Cal/Mol-Kelvin
 Total                  128.930             43.278            100.862
 Electronic               0.000              0.000              0.000
 Translational            0.889              2.981             41.353
 Rotational               0.889              2.981             30.718
 Vibrational            127.152             37.316             28.791
 Vibration     1          0.599              1.966              4.016
 Vibration     2          0.605              1.946              3.377
 Vibration     3          0.614              1.916              2.843
 Vibration     4          0.626              1.879              2.430
 Vibration     5          0.649              1.806              1.932
 Vibration     6          0.665              1.757              1.706
 Vibration     7          0.683              1.702              1.505
 Vibration     8          0.687              1.691              1.470
 Vibration     9          0.736              1.550              1.111
 Vibration    10          0.740              1.539              1.090
 Vibration    11          0.811              1.357              0.790
 Vibration    12          0.834              1.299              0.716
 Vibration    13          0.858              1.244              0.651
 Vibration    14          0.867              1.225              0.630
 Vibration    15          0.910              1.131              0.536
 Vibration    16          0.963              1.023              0.443

 Optimization completed.
    -- Stationary point found.
 Normal termination of Gaussian 16 at Sun May 28 11:28:31 2023.
