 Gaussian 16, Revision A.03,
 Gaussian 16:  ES64L-G16RevA.03 25-Dec-2016

 -----------------------------
 # opt freq b3lyp/6-31g(2df,p)
 -----------------------------

 -------------------
 Title Card Required
 -------------------
 Symbolic Z-matrix:
 Charge =  0 Multiplicity = 1

 SCF Done:  E(RB3LYP) =  -500.782198385     A.U. after   23 cycles
 SCF Done:  E(RB3LYP) =  -500.862132407     A.U. after   20 cycles
 SCF Done:  E(RB3LYP) =  -500.930891314     A.U. after   23 cycles
 SCF Done:  E(RB3LYP) =  -499.930991254     A.U. after   26 cycles
 SCF Done:  E(RB3LYP) =  -500.997092914     A.U. after   19 cycles
 SCF Done:  E(RB3LYP) =  -501.013228496     A.U. after   16 cycles
 SCF Done:  E(RB3LYP) =  -501.014032778     A.U. after   11 cycles
 SCF Done:  E(RB3LYP) =  -501.018686169     A.U. after   14 cycles
 SCF Done:  E(RB3LYP) =  -501.042566800     A.U. after   16 cycles
 SCF Done:  E(RB3LYP) =  -501.068708063     A.U. after   16 cycles
 SCF Done:  E(RB3LYP) =  -501.513772735     A.U. after   10 cycles
 SCF Done:  E(RB3LYP) =  -501.513855891     A.U. after   10 cycles
 SCF Done:  E(RB3LYP) =  -501.513893886     A.U. after    9 cycles
 SCF Done:  E(RB3LYP) =  -501.513908834     A.U. after    9 cycles
 SCF Done:  E(RB3LYP) =  -501.513921412     A.U. after    9 cycles
 SCF Done:  E(RB3LYP) =  -501.513931655     A.U. after    9 cycles
 SCF Done:  E(RB3LYP) =  -501.513942549     A.U. after    8 cycles
 SCF Done:  E(RB3LYP) =  -501.513945197     A.U. after    8 cycles
 SCF Done:  E(RB3LYP) =  -501.513946768     A.U. after    7 cycles
 Optimization completed.
    -- Stationary point found.
 Normal termination of Gaussian 16 at Mon May 29 18:17:26 2023.

 ----------------------------------------------------------------------
 #N Geom=AllCheck Guess=TCheck SCRF=Check GenChk RB3LYP/6-31G(2df,p) Fr
 eq
 ----------------------------------------------------------------------

 Structure from the checkpoint file:  "OdC1CdC2CdC1C1CCCC1C2.chk"
 -------------------
 Title Card Required
 -------------------
 Charge =  0 Multiplicity = 1

                         Standard orientation:
 ---------------------------------------------------------------------
 Center     Atomic      Atomic             Coordinates (Angstroms)
 Number     Number       Type             X           Y           Z
 ---------------------------------------------------------------------
      1          8           0       -2.056926    1.989804   -0.507603
      2          6           0       -1.851835    0.865173   -0.160549
      3          6           0       -2.395855   -0.547729   -0.451896
      4          6           0       -0.992684   -1.110900   -0.336017
      5          6           0       -1.750325   -1.081610    0.861083
      6          6           0       -0.821227    0.097574    0.654070
      7          6           0        0.633977    0.176345    1.043606
      8          6           0        1.362472    1.457245    0.534752
      9          6           0        2.261037    0.997170   -0.631056
     10          6           0        2.636078   -0.449432   -0.267864
     11          6           0        1.331690   -1.038327    0.298273
     12          6           0        0.350170   -1.545238   -0.818937
     13          1           0       -3.253683   -0.959428   -0.967822
     14          1           0       -2.085437   -1.698689    1.675489
     15          1           0        0.763756    0.081022    2.125407
     16          1           0        1.980509    1.865555    1.340586
     17          1           0        0.658719    2.238680    0.239879
     18          1           0        3.133195    1.641603   -0.771723
     19          1           0        1.698619    1.015507   -1.572071
     20          1           0        3.412484   -0.449888    0.506772
     21          1           0        3.024361   -1.023828   -1.115275
     22          1           0        1.526839   -1.859525    0.992894
     23          1           0        0.438489   -2.625908   -0.968282
     24          1           0        0.576570   -1.065163   -1.777827
 ---------------------------------------------------------------------

 SCF Done:  E(RB3LYP) =  -501.513946768     A.U. after    1 cycles

 The electronic state is 1-A.
 Alpha  occ. eigenvalues --  -19.12039 -10.26456 -10.21592 -10.21532 -10.21415
 Alpha  occ. eigenvalues --  -10.20468 -10.20302 -10.19662 -10.19570 -10.18346
 Alpha  occ. eigenvalues --  -10.18029 -10.17844  -1.03516  -0.97259  -0.84611
 Alpha  occ. eigenvalues --   -0.76299  -0.73383  -0.68382  -0.65341  -0.64355
 Alpha  occ. eigenvalues --   -0.57456  -0.56737  -0.55694  -0.49716  -0.49062
 Alpha  occ. eigenvalues --   -0.48462  -0.45564  -0.44433  -0.43385  -0.41886
 Alpha  occ. eigenvalues --   -0.40545  -0.40076  -0.38977  -0.35177  -0.34122
 Alpha  occ. eigenvalues --   -0.33693  -0.33306  -0.32773  -0.32227  -0.30531
 Alpha  occ. eigenvalues --   -0.27496  -0.25289  -0.23788
 Alpha virt. eigenvalues --    0.02285   0.06699   0.07961   0.09404   0.11304
 Alpha virt. eigenvalues --    0.11739   0.12586   0.13099   0.13362   0.14505
 Alpha virt. eigenvalues --    0.15742   0.16210   0.16839   0.17505   0.18270

 Mulliken charges:
               1
     1  O   -0.348865
     2  C    0.408831
     3  C   -0.327339
     4  C    0.299618
     5  C   -0.220065
     6  C    0.124802
     7  C   -0.155608
     8  C   -0.233356
     9  C   -0.201246
    10  C   -0.219732
    11  C   -0.000198
    12  C   -0.378399
    13  H    0.107544
    14  H    0.131624
    15  H    0.079221
    16  H    0.097809
    17  H    0.133600
    18  H    0.097431
    19  H    0.105820
    20  H    0.096941
    21  H    0.097229
    22  H    0.072795
    23  H    0.113723
    24  H    0.117817
 Sum of Mulliken charges =   0.00000

 Dipole moment (field-independent basis, Debye):
    X=              1.7704    Y=             -3.2221    Z=              0.7653  Tot=              3.7552
 Quadrupole moment (field-independent basis, Debye-Ang):
   XX=            -70.3243   YY=            -74.4048   ZZ=            -68.4728
   XY=              7.1886   XZ=             -1.2136   YZ=              1.2313

  Exact polarizability: 117.677   1.240 105.503   2.285  -0.948  88.659
 Approx polarizability: 160.259  -3.747 172.462   5.270  -2.968 148.803

                      1                      2                      3
                      A                      A                      A
 Frequencies --     53.0549               107.4277               132.3509
 Red. masses --      3.6737                 3.7363                 3.8493
 Frc consts  --      0.0061                 0.0254                 0.0397
 IR Inten    --      1.2334                 0.7559                 1.7724

                      4                      5                      6
                      A                      A                      A
 Frequencies --    229.6113               310.1994               327.4850
 Red. masses --      2.3688                 2.5260                 2.4169
 Frc consts  --      0.0736                 0.1432                 0.1527
 IR Inten    --      0.2263                 0.7573                 1.1491

                      7                      8                      9
                      A                      A                      A
 Frequencies --    341.0802               400.5578               480.2531
 Red. masses --      3.7101                 3.0186                 3.8849
 Frc consts  --      0.2543                 0.2854                 0.5279
 IR Inten    --      0.1155                 1.2302                 2.5736

                     10                     11                     12
                      A                      A                      A
 Frequencies --    541.3265               577.4998               662.4494
 Red. masses --      4.2821                 1.8991                 4.9361
 Frc consts  --      0.7393                 0.3732                 1.2763
 IR Inten    --      3.5981                 1.5006                 1.3091

                     13                     14                     15
                      A                      A                      A
 Frequencies --    681.9212               718.2570               736.9683
 Red. masses --      4.4005                 3.8615                 2.8818
 Frc consts  --      1.2057                 1.1737                 0.9222
 IR Inten    --      1.1960                 0.4970                 0.5623

                     16                     17                     18
                      A                      A                      A
 Frequencies --    754.4802               792.6920               813.3712
 Red. masses --      4.0940                 2.9196                 3.8818
 Frc consts  --      1.3731                 1.0809                 1.5131
 IR Inten    --      1.0151                 1.0491                10.1797

                     19                     20                     21
                      A                      A                      A
 Frequencies --    840.6340               860.2604               870.4753
 Red. masses --      1.9274                 1.9891                 1.7668
 Frc consts  --      0.8025                 0.8673                 0.7888
 IR Inten    --      4.2636                 3.2322                 8.1080

                     22                     23                     24
                      A                      A                      A
 Frequencies --    892.8330               901.2715               905.7679
 Red. masses --      1.6178                 2.8389                 2.3143
 Frc consts  --      0.7598                 1.3587                 1.1187
 IR Inten    --      0.8006                20.5180                 3.0042

                     25                     26                     27
                      A                      A                      A
 Frequencies --    920.6614               952.3565               976.0231
 Red. masses --      3.1754                 2.0150                 2.2018
 Frc consts  --      1.5858                 1.0768                 1.2358
 IR Inten    --      5.0448                 4.6327                 3.9373

                     28                     29                     30
                      A                      A                      A
 Frequencies --    987.4819              1004.0110              1029.8186
 Red. masses --      1.7538                 1.6511                 1.8923
 Frc consts  --      1.0076                 0.9806                 1.1824
 IR Inten    --      3.9038                13.1771                 0.6952

                     31                     32                     33
                      A                      A                      A
 Frequencies --   1063.1719              1077.0816              1106.6314
 Red. masses --      2.3914                 2.1265                 2.0394
 Frc consts  --      1.5926                 1.4535                 1.4715
 IR Inten    --      0.8449                 3.8706                 1.9870

                     34                     35                     36
                      A                      A                      A
 Frequencies --   1124.6709              1155.8393              1179.6162
 Red. masses --      3.0933                 1.4189                 1.3323
 Frc consts  --      2.3053                 1.1168                 1.0923
 IR Inten    --      4.4679                 2.6638                 0.4771

                     37                     38                     39
                      A                      A                      A
 Frequencies --   1188.2520              1197.2801              1233.5186
 Red. masses --      1.5058                 1.8918                 1.3340
 Frc consts  --      1.2526                 1.5978                 1.1959
 IR Inten    --      0.8771                 1.3171                 1.6812

                     40                     41                     42
                      A                      A                      A
 Frequencies --   1267.2720              1289.6918              1297.8105
 Red. masses --      1.3416                 1.3361                 1.4118
 Frc consts  --      1.2694                 1.3093                 1.4010
 IR Inten    --      1.0841                 1.3637                 1.2919

                     43                     44                     45
                      A                      A                      A
 Frequencies --   1318.6614              1330.3657              1335.2832
 Red. masses --      1.3421                 1.6048                 1.3599
 Frc consts  --      1.3750                 1.6734                 1.4285
 IR Inten    --      2.3937                 3.0811                 3.1778

                     46                     47                     48
                      A                      A                      A
 Frequencies --   1342.8817              1361.0852              1371.9616
 Red. masses --      1.4809                 1.4879                 2.5208
 Frc consts  --      1.5734                 1.6240                 2.7956
 IR Inten    --      0.4474                 3.7128                 2.7846

                     49                     50                     51
                      A                      A                      A
 Frequencies --   1486.3412              1489.6329              1499.7528
 Red. masses --      1.0874                 1.0931                 1.0860
 Frc consts  --      1.4154                 1.4292                 1.4392
 IR Inten    --      0.2017                 3.6226                 6.1479

                     52                     53                     54
                      A                      A                      A
 Frequencies --   1511.6753              1554.7917              1884.1961
 Red. masses --      1.0991                 7.6139                12.5077
 Frc consts  --      1.4798                10.8442                26.1626
 IR Inten    --      5.1459                 2.6592               440.5752

                     55                     56                     57
                      A                      A                      A
 Frequencies --   3029.7828              3037.0182              3039.8030
 Red. masses --      1.0650                 1.0632                 1.0636
 Frc consts  --      5.7602                 5.7780                 5.7905
 IR Inten    --     18.4286                23.0818                36.8065

                     58                     59                     60
                      A                      A                      A
 Frequencies --   3043.7437              3056.5274              3067.1371
 Red. masses --      1.0755                 1.0748                 1.0899
 Frc consts  --      5.8706                 5.9161                 6.0408
 IR Inten    --      2.0070                29.2476                26.2880

                     61                     62                     63
                      A                      A                      A
 Frequencies --   3078.8041              3084.0301              3092.6923
 Red. masses --      1.0984                 1.0983                 1.0979
 Frc consts  --      6.1347                 6.1546                 6.1871
 IR Inten    --     25.3003                54.7369                39.1604

                     64                     65                     66
                      A                      A                      A
 Frequencies --   3112.6203              3208.8766              3280.2472
 Red. masses --      1.1015                 1.0952                 1.1028
 Frc consts  --      6.2879                 6.6446                 6.9912
 IR Inten    --     20.4827                10.9146                 0.5515

 - Thermochemistry -
 -------------------
 Temperature   298.150 Kelvin.  Pressure   1.00000 Atm.
 Atom     1 has atomic number  8 and mass  15.99491

 Molecular mass:   160.08882 amu.
 Principal axes and moments of inertia in atomic units:
                           1         2         3
     Eigenvalues --  1031.086011994.478902501.29828
           X            0.99939   0.03434  -0.00595
           Y           -0.03426   0.99933   0.01310
           Z            0.00640  -0.01289   0.99990
 This molecule is an asymmetric top.
 Rotational symmetry number  1.
 Warning -- assumption of classical behavior for rotation
           may cause significant error
 Rotational temperatures (Kelvin)      0.08400     0.04343     0.03463
 Rotational constants (GHZ):           1.75033     0.90487     0.72152
 Zero-point vibrational energy     529953.6 (Joules/Mol)
                                  126.66196 (Kcal/Mol)
 Warning -- explicit consideration of  11 degrees of freedom as
           vibrations may cause significant error
 Vibrational temperatures:     76.33   154.56   190.42   330.36   446.31
          (Kelvin)            471.18   490.74   576.31   690.98   778.85
                              830.89   953.12   981.13  1033.41  1060.33
                             1085.53  1140.51  1170.26  1209.48  1237.72
                             1252.42  1284.59  1296.73  1303.20  1324.63
                             1370.23  1404.28  1420.77  1444.55  1481.68
                             1529.67  1549.68  1592.20  1618.15  1663.00
                             1697.20  1709.63  1722.62  1774.76  1823.32
                             1855.58  1867.26  1897.26  1914.10  1921.17
                             1932.11  1958.30  1973.95  2138.51  2143.25
                             2157.81  2174.96  2237.00  2710.94  4359.18
                             4369.59  4373.60  4379.27  4397.66  4412.93
                             4429.71  4437.23  4449.69  4478.37  4616.86
                             4719.54

 Zero-point correction=                           0.201849 (Hartree/Particle)
 Thermal correction to Energy=                    0.211105
 Thermal correction to Enthalpy=                  0.212049
 Thermal correction to Gibbs Free Energy=         0.167056
 Sum of electronic and zero-point Energies=           -501.312098
 Sum of electronic and thermal Energies=              -501.302841
 Sum of electronic and thermal Enthalpies=            -501.301897
 Sum of electronic and thermal Free Energies=         -501.346890

                     E (Thermal)             CV                S
                      KCal/Mol        Cal/Mol-Kelvin    Cal/Mol-Kelvin
 Total                  132.471             38.240             94.696
 Electronic               0.000              0.000              0.000
 Translational            0.889              2.981             41.121
 Rotational               0.889              2.981             30.021
 Vibrational            130.693             32.279             23.554
 Vibration     1          0.596              1.976              4.700
 Vibration     2          0.606              1.943              3.315
 Vibration     3          0.612              1.921              2.912
 Vibration     4          0.652              1.796              1.882
 Vibration     5          0.699              1.654              1.361
 Vibration     6          0.711              1.621              1.272
 Vibration     7          0.721              1.593              1.207
 Vibration     8          0.766              1.469              0.961
 Vibration     9          0.837              1.294              0.709
 Vibration    10          0.896              1.159              0.562
 Vibration    11          0.934              1.080              0.490

                           ! Non-Optimized Parameters !
 Normal termination of Gaussian 16 at Mon May 29 19:34:32 2023.
