 Gaussian 16, Revision A.03,
 Gaussian 16:  ES64L-G16RevA.03 25-Dec-2016

 -----------------------------
 # opt freq b3lyp/6-31g(2df,p)
 -----------------------------

 -------------------
 Title Card Required
 -------------------
 Symbolic Z-matrix:
 Charge =  0 Multiplicity = 1

 SCF Done:  E(RB3LYP) =  -947.694910469     A.U. after   16 cycles
 SCF Done:  E(RB3LYP) =  -947.737396104     A.U. after   13 cycles
 SCF Done:  E(RB3LYP) =  -947.771343288     A.U. after   14 cycles
 SCF Done:  E(RB3LYP) =  -947.781885392     A.U. after   13 cycles
 SCF Done:  E(RB3LYP) =  -947.790002548     A.U. after   13 cycles
 SCF Done:  E(RB3LYP) =  -947.793802444     A.U. after   13 cycles
 SCF Done:  E(RB3LYP) =  -947.796227169     A.U. after   13 cycles
 SCF Done:  E(RB3LYP) =  -947.798615194     A.U. after   13 cycles
 SCF Done:  E(RB3LYP) =  -947.800779583     A.U. after   14 cycles
 SCF Done:  E(RB3LYP) =  -947.802211165     A.U. after   13 cycles
 SCF Done:  E(RB3LYP) =  -947.802919656     A.U. after   12 cycles
 SCF Done:  E(RB3LYP) =  -947.802994418     A.U. after   12 cycles
 SCF Done:  E(RB3LYP) =  -947.803081783     A.U. after   11 cycles
 SCF Done:  E(RB3LYP) =  -947.803090935     A.U. after    9 cycles
 SCF Done:  E(RB3LYP) =  -947.803092733     A.U. after    8 cycles
 Optimization completed.
    -- Stationary point found.
 Normal termination of Gaussian 16 at Sun May 28 00:34:24 2023.

 ----------------------------------------------------------------------
 #N Geom=AllCheck Guess=TCheck SCRF=Check GenChk RB3LYP/6-31G(2df,p) Fr
 eq
 ----------------------------------------------------------------------

 Structure from the checkpoint file:  "OdC1SCdC2NdCCC1N1CCN21.chk"
 -------------------
 Title Card Required
 -------------------
 Charge =  0 Multiplicity = 1

                         Standard orientation:
 ---------------------------------------------------------------------
 Center     Atomic      Atomic             Coordinates (Angstroms)
 Number     Number       Type             X           Y           Z
 ---------------------------------------------------------------------
      1          8           0        2.379290   -0.327534   -1.529693
      2          6           0        1.433891   -0.366162   -0.788073
      3         16           0        1.511333   -1.439887    0.684030
      4          6           0       -0.178125   -1.305933    1.152919
      5          6           0       -0.644617   -0.037866    1.192109
      6          7           0        0.048070    1.041287    1.738668
      7          6           0        0.561882    1.971838    1.049491
      8          6           0        0.653033    2.015191   -0.450133
      9          6           0        0.248766    0.685777   -1.115177
     10          7           0       -1.194196    0.513486   -0.969020
     11          6           0       -1.855690   -0.748722   -1.368898
     12          6           0       -2.696013   -0.655228   -0.086239
     13          7           0       -1.788922    0.413952    0.446714
     14          1           0       -0.813944   -2.125695    0.851511
     15          1           0        0.990908    2.816837    1.593355
     16          1           0        1.669977    2.292988   -0.746712
     17          1           0       -0.015021    2.805624   -0.816933
     18          1           0        0.399199    0.795328   -2.194481
     19          1           0       -1.190083   -1.619305   -1.399436
     20          1           0       -2.381781   -0.664897   -2.323582
     21          1           0       -2.778410   -1.545965    0.536302
     22          1           0       -3.689918   -0.230889   -0.237487
 ---------------------------------------------------------------------

 SCF Done:  E(RB3LYP) =  -947.803092733     A.U. after    1 cycles

 The electronic state is 1-A.
 Alpha  occ. eigenvalues --  -88.89427 -19.14732 -14.37543 -14.37412 -14.35102
 Alpha  occ. eigenvalues --  -10.29715 -10.26283 -10.25769 -10.25273 -10.23373
 Alpha  occ. eigenvalues --  -10.23322 -10.21801 -10.19849  -7.95597  -5.92023
 Alpha  occ. eigenvalues --   -5.91682  -5.91264  -1.06186  -1.02619  -0.95163
 Alpha  occ. eigenvalues --   -0.85948  -0.81676  -0.77565  -0.75716  -0.69773
 Alpha  occ. eigenvalues --   -0.67315  -0.63125  -0.60433  -0.55898  -0.54469
 Alpha  occ. eigenvalues --   -0.52173  -0.49619  -0.48520  -0.47920  -0.45480
 Alpha  occ. eigenvalues --   -0.45070  -0.43684  -0.43130  -0.42797  -0.40692
 Alpha  occ. eigenvalues --   -0.39270  -0.38147  -0.36678  -0.35853  -0.33579
 Alpha  occ. eigenvalues --   -0.31364  -0.29564  -0.27988  -0.25471  -0.22156
 Alpha  occ. eigenvalues --   -0.21471
 Alpha virt. eigenvalues --   -0.05194  -0.02942  -0.01306   0.02920   0.06872
 Alpha virt. eigenvalues --    0.07898   0.08190   0.09894   0.10931   0.11612
 Alpha virt. eigenvalues --    0.13353   0.13685   0.14772   0.16086   0.16996

 Mulliken charges:
               1
     1  O   -0.295974
     2  C    0.296674
     3  S   -0.122372
     4  C   -0.240815
     5  C    0.257786
     6  N   -0.147562
     7  C    0.035841
     8  C   -0.266060
     9  C   -0.110718
    10  N   -0.070023
    11  C   -0.183974
    12  C   -0.177399
    13  N   -0.148275
    14  H    0.113172
    15  H    0.126553
    16  H    0.147696
    17  H    0.148711
    18  H    0.127226
    19  H    0.121099
    20  H    0.123718
    21  H    0.134178
    22  H    0.130518
 Sum of Mulliken charges =  -0.00000

 Dipole moment (field-independent basis, Debye):
    X=             -2.7128    Y=              0.9309    Z=             -1.4034  Tot=              3.1930
 Quadrupole moment (field-independent basis, Debye-Ang):
   XX=            -84.8660   YY=            -75.9577   ZZ=            -86.2746
   XY=              9.7535   XZ=              4.7018   YZ=             -0.2697

  Exact polarizability: 122.882   2.782 120.928  -0.503  -6.187 106.255
 Approx polarizability: 197.307  -2.704 211.842 -15.802 -23.154 197.684

                      1                      2                      3
                      A                      A                      A
 Frequencies --     77.8143               160.4333               188.5370
 Red. masses --      8.8507                 3.8835                 3.8383
 Frc consts  --      0.0316                 0.0589                 0.0804
 IR Inten    --      2.8800                 2.0984                 1.7181

                      4                      5                      6
                      A                      A                      A
 Frequencies --    217.0934               228.1002               286.7839
 Red. masses --      4.9517                 4.1333                 2.7929
 Frc consts  --      0.1375                 0.1267                 0.1353
 IR Inten    --      0.5786                 3.9918                 0.2272

                      7                      8                      9
                      A                      A                      A
 Frequencies --    337.4176               343.7142               364.9217
 Red. masses --      8.1179                 4.1349                 4.3171
 Frc consts  --      0.5445                 0.2878                 0.3387
 IR Inten    --     14.5261                 1.9150                 0.7461

                     10                     11                     12
                      A                      A                      A
 Frequencies --    431.1251               434.8817               454.7305
 Red. masses --      8.9182                 4.8172                 5.4358
 Frc consts  --      0.9766                 0.5368                 0.6622
 IR Inten    --      1.8065                 9.0440                 3.3639

                     13                     14                     15
                      A                      A                      A
 Frequencies --    499.0620               553.5734               569.8283
 Red. masses --      4.3589                 5.5247                 4.3116
 Frc consts  --      0.6396                 0.9975                 0.8249
 IR Inten    --      5.8773                11.4809                 1.8317

                     16                     17                     18
                      A                      A                      A
 Frequencies --    639.7153               687.0646               734.0028
 Red. masses --      6.6780                 5.0074                 1.6366
 Frc consts  --      1.6102                 1.3927                 0.5195
 IR Inten    --     10.4259                 6.6704                 3.6923

                     19                     20                     21
                      A                      A                      A
 Frequencies --    759.6860               771.2986               788.3014
 Red. masses --      1.5846                 4.0538                 4.3440
 Frc consts  --      0.5388                 1.4209                 1.5905
 IR Inten    --     26.0727                 2.1293                41.7406

                     22                     23                     24
                      A                      A                      A
 Frequencies --    816.4937               833.2591               859.9217
 Red. masses --      2.9661                 2.7330                 3.2657
 Frc consts  --      1.1650                 1.1180                 1.4228
 IR Inten    --     25.7508                 2.4732                 2.2286

                     25                     26                     27
                      A                      A                      A
 Frequencies --    895.9554               903.7961               919.8935
 Red. masses --      3.3357                 2.7687                 3.4294
 Frc consts  --      1.5776                 1.3325                 1.7098
 IR Inten    --     24.0357                 2.2769                33.1751

                     28                     29                     30
                      A                      A                      A
 Frequencies --    971.2283               985.1899              1016.4289
 Red. masses --      2.5817                 2.2795                 3.5934
 Frc consts  --      1.4348                 1.3035                 2.1873
 IR Inten    --      0.4750                 7.7321                 1.7382

                     31                     32                     33
                      A                      A                      A
 Frequencies --   1048.6957              1069.4102              1113.7069
 Red. masses --      2.1689                 3.2215                 1.8954
 Frc consts  --      1.4054                 2.1707                 1.3852
 IR Inten    --      6.5490                 5.1712                14.3111

                     34                     35                     36
                      A                      A                      A
 Frequencies --   1132.8845              1163.9376              1195.4388
 Red. masses --      1.9427                 2.8155                 1.5559
 Frc consts  --      1.4691                 2.2474                 1.3101
 IR Inten    --     24.4923                23.5320                21.2004

                     37                     38                     39
                      A                      A                      A
 Frequencies --   1217.3073              1234.8464              1254.2916
 Red. masses --      1.3371                 1.4707                 1.5038
 Frc consts  --      1.1674                 1.3213                 1.3939
 IR Inten    --      3.0445                14.8888                 1.1769

                     40                     41                     42
                      A                      A                      A
 Frequencies --   1303.6576              1304.9548              1320.7327
 Red. masses --      1.3360                 1.3970                 1.3354
 Frc consts  --      1.3378                 1.4016                 1.3724
 IR Inten    --      0.0044                19.6362                 9.7858

                     43                     44                     45
                      A                      A                      A
 Frequencies --   1347.4333              1361.9743              1412.4823
 Red. masses --      1.3951                 1.4976                 1.3146
 Frc consts  --      1.4924                 1.6367                 1.5453
 IR Inten    --      9.9882                 4.3177                13.7971

                     46                     47                     48
                      A                      A                      A
 Frequencies --   1443.0438              1501.4216              1515.5673
 Red. masses --      1.0862                 1.0851                 1.1189
 Frc consts  --      1.3326                 1.4411                 1.5142
 IR Inten    --     18.5022                 4.4857                 9.8046

                     49                     50                     51
                      A                      A                      A
 Frequencies --   1572.8114              1753.8724              1770.2941
 Red. masses --      8.2373                10.3331                12.5547
 Frc consts  --     12.0057                18.7275                23.1819
 IR Inten    --     87.4877                79.2287               259.6367

                     52                     53                     54
                      A                      A                      A
 Frequencies --   3030.1035              3031.6093              3059.9407
 Red. masses --      1.0619                 1.0637                 1.0848
 Frc consts  --      5.7446                 5.7599                 5.9843
 IR Inten    --     27.8885                 2.7511                 5.7901

                     55                     56                     57
                      A                      A                      A
 Frequencies --   3083.2514              3084.1445              3093.0528
 Red. masses --      1.0969                 1.0709                 1.0914
 Frc consts  --      6.1439                 6.0018                 6.1516
 IR Inten    --      2.4412                18.7713                39.9522

                     58                     59                     60
                      A                      A                      A
 Frequencies --   3105.2302              3140.6272              3213.0548
 Red. masses --      1.0893                 1.1092                 1.0888
 Frc consts  --      6.1882                 6.4459                 6.6229
 IR Inten    --     35.5979                12.9037                10.3500

 - Thermochemistry -
 -------------------
 Temperature   298.150 Kelvin.  Pressure   1.00000 Atm.
 Atom     1 has atomic number  8 and mass  15.99491

 Molecular mass:   195.04663 amu.
 Principal axes and moments of inertia in atomic units:
                           1         2         3
     Eigenvalues --  1698.827032330.239772449.63341
           X            0.99499   0.09624   0.02722
           Y           -0.09653   0.99528   0.00968
           Z           -0.02616  -0.01226   0.99958
 This molecule is an asymmetric top.
 Rotational symmetry number  1.
 Warning -- assumption of classical behavior for rotation
           may cause significant error
 Rotational temperatures (Kelvin)      0.05098     0.03717     0.03536
 Rotational constants (GHZ):           1.06235     0.77449     0.73674
 Zero-point vibrational energy     440285.8 (Joules/Mol)
                                  105.23082 (Kcal/Mol)
 Warning -- explicit consideration of  15 degrees of freedom as
           vibrations may cause significant error
 Vibrational temperatures:    111.96   230.83   271.26   312.35   328.19
          (Kelvin)            412.62   485.47   494.53   525.04   620.29
                              625.70   654.26   718.04   796.47   819.86
                              920.41   988.53  1056.07  1093.02  1109.73
                             1134.19  1174.75  1198.87  1237.24  1289.08
                             1300.36  1323.52  1397.38  1417.47  1462.41
                             1508.84  1538.64  1602.38  1629.97  1674.65
                             1719.97  1751.43  1776.67  1804.65  1875.67
                             1877.54  1900.24  1938.66  1959.58  2032.25
                             2076.22  2160.21  2180.56  2262.92  2523.43
                             2547.06  4359.64  4361.81  4402.57  4436.11
                             4437.40  4450.21  4467.73  4518.66  4622.87

 Zero-point correction=                           0.167696 (Hartree/Particle)
 Thermal correction to Energy=                    0.177855
 Thermal correction to Enthalpy=                  0.178800
 Thermal correction to Gibbs Free Energy=         0.132368
 Sum of electronic and zero-point Energies=           -947.635397
 Sum of electronic and thermal Energies=              -947.625237
 Sum of electronic and thermal Enthalpies=            -947.624293
 Sum of electronic and thermal Free Energies=         -947.670725

                     E (Thermal)             CV                S
                      KCal/Mol        Cal/Mol-Kelvin    Cal/Mol-Kelvin
 Total                  111.606             41.692             97.724
 Electronic               0.000              0.000              0.000
 Translational            0.889              2.981             41.709
 Rotational               0.889              2.981             30.651
 Vibrational            109.828             35.730             25.363
 Vibration     1          0.599              1.964              3.945
 Vibration     2          0.622              1.891              2.545
 Vibration     3          0.633              1.856              2.242
 Vibration     4          0.646              1.815              1.983
 Vibration     5          0.651              1.798              1.894
 Vibration     6          0.684              1.698              1.493
 Vibration     7          0.718              1.601              1.224
 Vibration     8          0.722              1.588              1.195
 Vibration     9          0.738              1.544              1.101
 Vibration    10          0.792              1.402              0.855
 Vibration    11          0.795              1.394              0.843
 Vibration    12          0.813              1.350              0.782
 Vibration    13          0.855              1.252              0.660
 Vibration    14          0.909              1.132              0.537
 Vibration    15          0.926              1.097              0.505

 Optimization completed.
    -- Stationary point found.
 Normal termination of Gaussian 16 at Sun May 28 02:06:22 2023.
