 Gaussian 16, Revision A.03,
 Gaussian 16:  ES64L-G16RevA.03 25-Dec-2016

 -----------------------------
 # opt freq b3lyp/6-31g(2df,p)
 -----------------------------

 -------------------
 Title Card Required
 -------------------
 Symbolic Z-matrix:
 Charge =  0 Multiplicity = 1

 SCF Done:  E(RB3LYP) =  -726.295390202     A.U. after   14 cycles
 SCF Done:  E(RB3LYP) =  -726.304086261     A.U. after   13 cycles
 SCF Done:  E(RB3LYP) =  -726.305023400     A.U. after   12 cycles
 SCF Done:  E(RB3LYP) =  -726.303344566     A.U. after   12 cycles
 SCF Done:  E(RB3LYP) =  -726.305205327     A.U. after   13 cycles
 SCF Done:  E(RB3LYP) =  -726.306027252     A.U. after   12 cycles
 SCF Done:  E(RB3LYP) =  -726.306893997     A.U. after   13 cycles
 SCF Done:  E(RB3LYP) =  -726.307706232     A.U. after   15 cycles
 SCF Done:  E(RB3LYP) =  -726.307903727     A.U. after   11 cycles
 SCF Done:  E(RB3LYP) =  -726.308065116     A.U. after   12 cycles
 SCF Done:  E(RB3LYP) =  -726.308198713     A.U. after   11 cycles
 SCF Done:  E(RB3LYP) =  -726.308224116     A.U. after   11 cycles
 SCF Done:  E(RB3LYP) =  -726.308232690     A.U. after   10 cycles
 SCF Done:  E(RB3LYP) =  -726.308235006     A.U. after    9 cycles
 SCF Done:  E(RB3LYP) =  -726.308238668     A.U. after    9 cycles
 SCF Done:  E(RB3LYP) =  -726.308240465     A.U. after    9 cycles
 SCF Done:  E(RB3LYP) =  -726.308241196     A.U. after    8 cycles
 SCF Done:  E(RB3LYP) =  -726.308241252     A.U. after    7 cycles
 SCF Done:  E(RB3LYP) =  -726.308241271     A.U. after    6 cycles
 Optimization completed.
    -- Stationary point found.
 Normal termination of Gaussian 16 at Sat May 27 19:17:48 2023.

 ----------------------------------------------------------------------
 #N Geom=AllCheck Guess=TCheck SCRF=Check GenChk RB3LYP/6-31G(2df,p) Fr
 eq
 ----------------------------------------------------------------------

 Structure from the checkpoint file:  "OdCC1CqdOrOCqCCOrCdC1CO.chk"
 -------------------
 Title Card Required
 -------------------
 Charge =  0 Multiplicity = 1

                         Standard orientation:
 ---------------------------------------------------------------------
 Center     Atomic      Atomic             Coordinates (Angstroms)
 Number     Number       Type             X           Y           Z
 ---------------------------------------------------------------------
      1          8           0        3.003212   -0.818027   -1.437573
      2          6           0        2.422704   -1.444453   -0.593118
      3          6           0        1.501536   -0.815044    0.470298
      4          6           0        0.220191   -1.648313    0.501241
      5          8           0        0.226891   -2.786714    0.888510
      6          8           0       -0.918223   -1.095302    0.056907
      7          6           0       -1.022071    0.241895   -0.496910
      8          6           0       -2.351731    0.815590    0.000395
      9          6           0       -3.572344   -0.008040   -0.422848
     10          8           0       -4.789072    0.606990   -0.032294
     11          6           0        0.142368    1.120259   -0.165486
     12          6           0        1.301037    0.661580    0.292874
     13          6           0        2.461270    1.561481    0.654015
     14          8           0        2.274024    2.914190    0.294254
     15          1           0        2.506095   -2.546254   -0.502579
     16          1           0        1.996103   -1.047095    1.425659
     17          1           0       -1.088349    0.105278   -1.587553
     18          1           0       -2.460290    1.831715   -0.394842
     19          1           0       -2.310489    0.896261    1.094178
     20          1           0       -3.490288   -1.031979   -0.036373
     21          1           0       -3.610140   -0.075109   -1.516476
     22          1           0       -4.867877    0.526933    0.923399
     23          1           0       -0.000353    2.186695   -0.305021
     24          1           0        3.382310    1.149889    0.217681
     25          1           0        2.596740    1.552404    1.744471
     26          1           0        2.354120    2.972441   -0.663738
 ---------------------------------------------------------------------

 SCF Done:  E(RB3LYP) =  -726.308241271     A.U. after    1 cycles

 The electronic state is 1-A.
 Alpha  occ. eigenvalues --  -19.19633 -19.16524 -19.15329 -19.13985 -19.13294
 Alpha  occ. eigenvalues --  -10.32469 -10.29596 -10.27041 -10.24714 -10.23325
 Alpha  occ. eigenvalues --  -10.23082 -10.21314 -10.20124 -10.19869  -1.11287
 Alpha  occ. eigenvalues --   -1.07263  -1.03579  -1.03066  -1.02088  -0.84865
 Alpha  occ. eigenvalues --   -0.81493  -0.75425  -0.71866  -0.68053  -0.63255
 Alpha  occ. eigenvalues --   -0.61215  -0.59772  -0.55016  -0.52419  -0.51375
 Alpha  occ. eigenvalues --   -0.51122  -0.50505  -0.49977  -0.46868  -0.45365
 Alpha  occ. eigenvalues --   -0.45256  -0.44853  -0.44288  -0.42036  -0.41667
 Alpha  occ. eigenvalues --   -0.40308  -0.39310  -0.38900  -0.37814  -0.35416
 Alpha  occ. eigenvalues --   -0.34661  -0.32971  -0.30884  -0.29858  -0.28569
 Alpha  occ. eigenvalues --   -0.28359  -0.26956  -0.25533
 Alpha virt. eigenvalues --   -0.04791  -0.00562   0.00807   0.06732   0.06986
 Alpha virt. eigenvalues --    0.08576   0.09906   0.10892   0.11856   0.13088
 Alpha virt. eigenvalues --    0.13471   0.14361   0.15108   0.15559   0.16971

 Mulliken charges:
               1
     1  O   -0.234512
     2  C    0.146061
     3  C   -0.382506
     4  C    0.413214
     5  O   -0.334078
     6  O   -0.241136
     7  C    0.047378
     8  C   -0.204138
     9  C   -0.075584
    10  O   -0.416261
    11  C   -0.173377
    12  C    0.236904
    13  C   -0.151128
    14  O   -0.404352
    15  H    0.126010
    16  H    0.141925
    17  H    0.113860
    18  H    0.117131
    19  H    0.104131
    20  H    0.118006
    21  H    0.111329
    22  H    0.284342
    23  H    0.115883
    24  H    0.123268
    25  H    0.125782
    26  H    0.291847
 Sum of Mulliken charges =  -0.00000

 Dipole moment (field-independent basis, Debye):
    X=              0.6291    Y=              1.6168    Z=              0.4939  Tot=              1.8038
 Quadrupole moment (field-independent basis, Debye-Ang):
   XX=            -87.3717   YY=            -91.7233   ZZ=            -78.4788
   XY=             -1.3982   XZ=             -1.1203   YZ=             -0.9838

  Exact polarizability: 133.140  -5.295 111.157   2.754  -6.207  87.289
 Approx polarizability: 176.698 -10.370 166.497   4.743 -18.810 146.299

                      1                      2                      3
                      A                      A                      A
 Frequencies --     23.2659                62.4712                67.1431
 Red. masses --      8.7221                 4.7350                 5.0813
 Frc consts  --      0.0028                 0.0109                 0.0135
 IR Inten    --      0.1906                 2.5255                 5.8501

                      4                      5                      6
                      A                      A                      A
 Frequencies --     84.2481                89.1822               108.4798
 Red. masses --      2.1442                 4.4776                 3.8882
 Frc consts  --      0.0090                 0.0210                 0.0270
 IR Inten    --      2.7937                 0.4778                 9.2129

                      7                      8                      9
                      A                      A                      A
 Frequencies --    116.7661               178.4426               185.6018
 Red. masses --      4.9595                 4.6717                 3.4395
 Frc consts  --      0.0398                 0.0876                 0.0698
 IR Inten    --      3.2014                 0.6758                 5.8968

                     10                     11                     12
                      A                      A                      A
 Frequencies --    219.2591               244.1504               290.0461
 Red. masses --      3.0955                 3.3718                 1.1266
 Frc consts  --      0.0877                 0.1184                 0.0558
 IR Inten    --      1.0870                 3.1337               116.9278

                     13                     14                     15
                      A                      A                      A
 Frequencies --    324.7285               333.6070               357.1523
 Red. masses --      5.3450                 1.5205                 2.6243
 Frc consts  --      0.3321                 0.0997                 0.1972
 IR Inten    --     18.7064                79.5810                22.1096

                     16                     17                     18
                      A                      A                      A
 Frequencies --    365.2453               431.7862               471.9199
 Red. masses --      4.8533                 4.4468                 6.3760
 Frc consts  --      0.3815                 0.4885                 0.8366
 IR Inten    --      8.4744                 5.4418                 0.6767

                     19                     20                     21
                      A                      A                      A
 Frequencies --    525.8251               547.3163               577.4198
 Red. masses --      3.4250                 5.0727                 5.1693
 Frc consts  --      0.5579                 0.8953                 1.0155
 IR Inten    --      5.9630                12.3114                17.4077

                     22                     23                     24
                      A                      A                      A
 Frequencies --    668.0663               729.0047               738.4725
 Red. masses --      4.3150                 3.4789                 3.1323
 Frc consts  --      1.1347                 1.0893                 1.0064
 IR Inten    --      1.6290                18.7801                 2.8099

                     25                     26                     27
                      A                      A                      A
 Frequencies --    788.6951               801.7413               859.6929
 Red. masses --      3.0048                 1.4325                 2.2284
 Frc consts  --      1.1013                 0.5425                 0.9704
 IR Inten    --     23.4896                19.0364                 9.5905

                     28                     29                     30
                      A                      A                      A
 Frequencies --    896.9179               958.9333               987.4581
 Red. masses --      1.8109                 2.9579                 2.3071
 Frc consts  --      0.8583                 1.6025                 1.3254
 IR Inten    --      9.6702                27.0227                 6.2062

                     31                     32                     33
                      A                      A                      A
 Frequencies --    998.3371              1029.8693              1034.4624
 Red. masses --      2.0233                 2.3405                 3.2286
 Frc consts  --      1.1881                 1.4626                 2.0356
 IR Inten    --     18.0001                22.5892                22.6789

                     34                     35                     36
                      A                      A                      A
 Frequencies --   1065.3644              1072.4684              1076.7013
 Red. masses --      2.4649                 2.5290                 4.1479
 Frc consts  --      1.6483                 1.7139                 2.8331
 IR Inten    --     51.8805                 6.7185               120.1518

                     37                     38                     39
                      A                      A                      A
 Frequencies --   1097.5883              1135.1095              1155.0559
 Red. masses --      4.1362                 2.0588                 2.3069
 Frc consts  --      2.9358                 1.5629                 1.8134
 IR Inten    --    109.8679                27.1957                31.7461

                     40                     41                     42
                      A                      A                      A
 Frequencies --   1183.3789              1209.7017              1224.5954
 Red. masses --      1.4079                 1.6032                 1.4328
 Frc consts  --      1.1617                 1.3823                 1.2660
 IR Inten    --     13.6430               118.7960                31.2965

                     43                     44                     45
                      A                      A                      A
 Frequencies --   1243.7240              1270.3637              1286.9647
 Red. masses --      1.8113                 1.3004                 1.3909
 Frc consts  --      1.6507                 1.2365                 1.3573
 IR Inten    --    106.9528                11.8037                 9.6856

                     46                     47                     48
                      A                      A                      A
 Frequencies --   1314.2077              1340.6161              1368.4175
 Red. masses --      1.2160                 1.6687                 1.4443
 Frc consts  --      1.2374                 1.7670                 1.5935
 IR Inten    --      3.2080                10.4482                28.9453

                     49                     50                     51
                      A                      A                      A
 Frequencies --   1386.5114              1402.6239              1405.7023
 Red. masses --      1.5185                 1.2217                 1.2869
 Frc consts  --      1.7200                 1.4162                 1.4982
 IR Inten    --     56.9153                14.0311                14.8461

                     52                     53                     54
                      A                      A                      A
 Frequencies --   1407.1547              1420.6582              1421.8917
 Red. masses --      1.2153                 1.5708                 1.3268
 Frc consts  --      1.4178                 1.8679                 1.5804
 IR Inten    --     25.1223                10.4101                41.7441

                     55                     56                     57
                      A                      A                      A
 Frequencies --   1473.9253              1487.8276              1513.7615
 Red. masses --      1.0869                 1.0926                 1.0914
 Frc consts  --      1.3912                 1.4250                 1.4736
 IR Inten    --      1.6386                 6.0866                 0.5411

                     58                     59                     60
                      A                      A                      A
 Frequencies --   1762.0453              1814.0888              1837.5921
 Red. masses --      8.2046                11.7988                10.8987
 Frc consts  --     15.0086                22.8772                21.6832
 IR Inten    --      6.0125               365.8059               127.0749

                     61                     62                     63
                      A                      A                      A
 Frequencies --   2939.8192              2982.1954              3003.1096
 Red. masses --      1.0869                 1.0817                 1.0651
 Frc consts  --      5.5345                 5.6680                 5.6594
 IR Inten    --     63.9312                21.4083                 9.0385

                     64                     65                     66
                      A                      A                      A
 Frequencies --   3007.4370              3020.9353              3031.2543
 Red. masses --      1.0728                 1.0584                 1.0631
 Frc consts  --      5.7169                 5.6910                 5.7554
 IR Inten    --     32.1135                17.6177                30.6456

                     67                     68                     69
                      A                      A                      A
 Frequencies --   3038.5572              3062.3129              3088.8130
 Red. masses --      1.1039                 1.1001                 1.1051
 Frc consts  --      6.0048                 6.0782                 6.2120
 IR Inten    --     16.7985                 8.1956                39.7871

                     70                     71                     72
                      A                      A                      A
 Frequencies --   3189.6852              3813.4862              3819.9493
 Red. masses --      1.0890                 1.0662                 1.0663
 Frc consts  --      6.5281                 9.1354                 9.1674
 IR Inten    --      0.9077                26.4944                21.3951

 - Thermochemistry -
 -------------------
 Temperature   298.150 Kelvin.  Pressure   1.00000 Atm.
 Atom     1 has atomic number  8 and mass  15.99491

 Molecular mass:   200.06847 amu.
 Principal axes and moments of inertia in atomic units:
                           1         2         3
     Eigenvalues --  1899.094064318.341845634.49146
           X            0.99998   0.00131   0.00621
           Y           -0.00132   1.00000   0.00229
           Z           -0.00620  -0.00230   0.99998
 This molecule is an asymmetric top.
 Rotational symmetry number  1.
 Warning -- assumption of classical behavior for rotation
           may cause significant error
 Rotational temperatures (Kelvin)      0.04561     0.02006     0.01537
 Rotational constants (GHZ):           0.95032     0.41792     0.32030
 Zero-point vibrational energy     541138.6 (Joules/Mol)
                                  129.33522 (Kcal/Mol)
 Warning -- explicit consideration of  21 degrees of freedom as
           vibrations may cause significant error
 Vibrational temperatures:     33.47    89.88    96.60   121.21   128.31
          (Kelvin)            156.08   168.00   256.74   267.04   315.46
                              351.28   417.31   467.21   479.99   513.86
                              525.51   621.24   678.99   756.54   787.47
                              830.78   961.20  1048.88  1062.50  1134.76
                             1153.53  1236.91  1290.46  1379.69  1420.73
                             1436.38  1481.75  1488.36  1532.82  1543.04
                             1549.13  1579.18  1633.17  1661.87  1702.62
                             1740.49  1761.92  1789.44  1827.77  1851.66
                             1890.85  1928.85  1968.85  1994.88  2018.06
                             2022.49  2024.58  2044.01  2045.79  2120.65
                             2140.65  2177.97  2535.19  2610.07  2643.89
                             4229.74  4290.71  4320.80  4327.03  4346.45
                             4361.30  4371.81  4405.99  4444.11  4589.25
                             5486.76  5496.06

 Zero-point correction=                           0.206109 (Hartree/Particle)
 Thermal correction to Energy=                    0.220702
 Thermal correction to Enthalpy=                  0.221646
 Thermal correction to Gibbs Free Energy=         0.162942
 Sum of electronic and zero-point Energies=           -726.102132
 Sum of electronic and thermal Energies=              -726.087540
 Sum of electronic and thermal Enthalpies=            -726.086595
 Sum of electronic and thermal Free Energies=         -726.145300

                     E (Thermal)             CV                S
                      KCal/Mol        Cal/Mol-Kelvin    Cal/Mol-Kelvin
 Total                  138.492             51.944            123.554
 Electronic               0.000              0.000              0.000
 Translational            0.889              2.981             41.785
 Rotational               0.889              2.981             32.202
 Vibrational            136.715             45.983             49.566
 Vibration     1          0.593              1.985              6.334
 Vibration     2          0.597              1.972              4.378
 Vibration     3          0.598              1.970              4.235
 Vibration     4          0.601              1.960              3.789
 Vibration     5          0.602              1.957              3.678
 Vibration     6          0.606              1.942              3.296
 Vibration     7          0.608              1.935              3.153
 Vibration     8          0.629              1.869              2.345
 Vibration     9          0.632              1.860              2.271
 Vibration    10          0.647              1.812              1.965
 Vibration    11          0.659              1.772              1.772
 Vibration    12          0.686              1.692              1.474
 Vibration    13          0.709              1.626              1.286
 Vibration    14          0.715              1.608              1.243
 Vibration    15          0.732              1.561              1.134
 Vibration    16          0.738              1.544              1.100
 Vibration    17          0.793              1.401              0.853
 Vibration    18          0.829              1.312              0.732
 Vibration    19          0.881              1.193              0.597
 Vibration    20          0.903              1.146              0.550
 Vibration    21          0.934              1.080              0.490

 Optimization completed.
    -- Stationary point found.
 Normal termination of Gaussian 16 at Sat May 27 20:42:13 2023.
