 Gaussian 16, Revision A.03,
 Gaussian 16:  ES64L-G16RevA.03 25-Dec-2016

 -----------------------------
 # opt freq b3lyp/6-31g(2df,p)
 -----------------------------

 -------------------
 Title Card Required
 -------------------
 Symbolic Z-matrix:
 Charge =  0 Multiplicity = 1

 SCF Done:  E(RB3LYP) =  -1382.95933696     A.U. after   16 cycles
 SCF Done:  E(RB3LYP) =  -1382.98127262     A.U. after   15 cycles
 SCF Done:  E(RB3LYP) =  -1382.98246422     A.U. after   13 cycles
 SCF Done:  E(RB3LYP) =  -1382.98643846     A.U. after   16 cycles
 SCF Done:  E(RB3LYP) =  -1382.98865282     A.U. after   16 cycles
 SCF Done:  E(RB3LYP) =  -1382.99163743     A.U. after   13 cycles
 SCF Done:  E(RB3LYP) =  -1382.99481051     A.U. after   14 cycles
 SCF Done:  E(RB3LYP) =  -1382.99567948     A.U. after   13 cycles
 SCF Done:  E(RB3LYP) =  -1382.99547092     A.U. after   14 cycles
 SCF Done:  E(RB3LYP) =  -1382.99680053     A.U. after   13 cycles
 SCF Done:  E(RB3LYP) =  -1383.00337639     A.U. after   13 cycles
 SCF Done:  E(RB3LYP) =  -1383.00364892     A.U. after   14 cycles
 SCF Done:  E(RB3LYP) =  -1383.00374624     A.U. after   13 cycles
 SCF Done:  E(RB3LYP) =  -1383.00377365     A.U. after   11 cycles
 SCF Done:  E(RB3LYP) =  -1383.00380377     A.U. after   11 cycles
 SCF Done:  E(RB3LYP) =  -1383.00380988     A.U. after   11 cycles
 SCF Done:  E(RB3LYP) =  -1383.00381011     A.U. after    8 cycles
 SCF Done:  E(RB3LYP) =  -1383.00381016     A.U. after    7 cycles
 SCF Done:  E(RB3LYP) =  -1383.00381017     A.U. after    7 cycles
 Optimization completed.
    -- Stationary point found.
 Normal termination of Gaussian 16 at Sat May 27 14:27:52 2023.

 ----------------------------------------------------------------------
 #N Geom=AllCheck Guess=TCheck SCRF=Check GenChk RB3LYP/6-31G(2df,p) Fr
 eq
 ----------------------------------------------------------------------

 Structure from the checkpoint file:  "OdCCSc1nnccc1-c1ccns1.chk"
 -------------------
 Title Card Required
 -------------------
 Charge =  0 Multiplicity = 1

                         Standard orientation:
 ---------------------------------------------------------------------
 Center     Atomic      Atomic             Coordinates (Angstroms)
 Number     Number       Type             X           Y           Z
 ---------------------------------------------------------------------
      1          8           0        4.748362    1.643920    0.552185
      2          6           0        3.856584    0.856491    0.373405
      3          6           0        2.991204    0.845936   -0.872619
      4         16           0        1.226059    1.085060   -0.450388
      5          6           0        0.704922   -0.577621   -0.102013
      6          7           0        1.640253   -1.524273   -0.126288
      7          7           0        1.333640   -2.803303    0.072868
      8          6           0        0.066589   -3.128977    0.300498
      9          6           0       -0.963802   -2.191635    0.358824
     10          6           0       -0.665587   -0.851735    0.161276
     11          6           0       -1.714100    0.171513    0.201139
     12          6           0       -1.732760    1.414697    0.792358
     13          6           0       -2.988880    2.045339    0.602820
     14          7           0       -3.895042    1.380636   -0.085414
     15         16           0       -3.260284   -0.076004   -0.543334
     16          1           0        3.596677    0.076350    1.116805
     17          1           0        3.084653   -0.108674   -1.394734
     18          1           0        3.264003    1.679038   -1.522631
     19          1           0       -0.123752   -4.186176    0.453443
     20          1           0       -1.980243   -2.502796    0.573470
     21          1           0       -0.910843    1.843123    1.348039
     22          1           0       -3.246759    3.027429    0.985399
 ---------------------------------------------------------------------

 SCF Done:  E(RB3LYP) =  -1383.00381017     A.U. after    1 cycles

 The electronic state is 1-A.
 Alpha  occ. eigenvalues --  -88.94724 -88.91177 -19.14688 -14.38060 -14.38021
 Alpha  occ. eigenvalues --  -14.36651 -10.28186 -10.27926 -10.25598 -10.25404
 Alpha  occ. eigenvalues --  -10.24365 -10.24244 -10.23698 -10.23224 -10.21865
 Alpha  occ. eigenvalues --   -8.00635  -7.97442  -5.97110  -5.96640  -5.96401
 Alpha  occ. eigenvalues --   -5.93918  -5.93525  -5.93038  -1.05391  -1.03626
 Alpha  occ. eigenvalues --   -0.98017  -0.87903  -0.85814  -0.80674  -0.79337
 Alpha  occ. eigenvalues --   -0.76737  -0.71511  -0.69073  -0.64469  -0.59840
 Alpha  occ. eigenvalues --   -0.59129  -0.58666  -0.54257  -0.53830  -0.50121
 Alpha  occ. eigenvalues --   -0.48721  -0.47736  -0.45830  -0.45189  -0.44295
 Alpha  occ. eigenvalues --   -0.43840  -0.43007  -0.42378  -0.40039  -0.39616
 Alpha  occ. eigenvalues --   -0.37238  -0.35527  -0.34735  -0.33488  -0.32770
 Alpha  occ. eigenvalues --   -0.30594  -0.28382  -0.27889  -0.26739  -0.25391
 Alpha  occ. eigenvalues --   -0.24192
 Alpha virt. eigenvalues --   -0.08660  -0.05316  -0.03752  -0.02650   0.00015
 Alpha virt. eigenvalues --    0.02142   0.03412   0.05558   0.07324   0.09674
 Alpha virt. eigenvalues --    0.10471   0.11619   0.12590   0.13772   0.14049

 Mulliken charges:
               1
     1  O   -0.231449
     2  C    0.160975
     3  C   -0.289303
     4  S   -0.098392
     5  C    0.218849
     6  N   -0.265540
     7  N   -0.196019
     8  C    0.026785
     9  C   -0.184325
    10  C    0.123521
    11  C    0.126511
    12  C   -0.236325
    13  C    0.016866
    14  N   -0.230528
    15  S    0.070876
    16  H    0.104131
    17  H    0.178857
    18  H    0.148367
    19  H    0.134308
    20  H    0.137644
    21  H    0.147429
    22  H    0.136763
 Sum of Mulliken charges =  -0.00000

 Dipole moment (field-independent basis, Debye):
    X=             -2.6809    Y=             -1.1105    Z=              0.3621  Tot=              2.9243
 Quadrupole moment (field-independent basis, Debye-Ang):
   XX=           -121.7231   YY=            -95.9304   ZZ=            -97.0719
   XY=              1.9486   XZ=             -7.4722   YZ=             -0.2961

  Exact polarizability: 198.411  -0.025 177.731   0.658   2.328  89.156
 Approx polarizability: 319.243  -4.955 326.572   6.812  11.887 159.278

                      1                      2                      3
                      A                      A                      A
 Frequencies --     32.9509                35.6982                54.1031
 Red. masses --      9.7537                 9.6826                 6.7486
 Frc consts  --      0.0062                 0.0073                 0.0116
 IR Inten    --      1.5128                 1.6027                 0.1236

                      4                      5                      6
                      A                      A                      A
 Frequencies --     76.8176                91.2613               105.8727
 Red. masses --      4.3228                 5.6514                 6.0747
 Frc consts  --      0.0150                 0.0277                 0.0401
 IR Inten    --      1.8109                10.4057                 1.0256

                      7                      8                      9
                      A                      A                      A
 Frequencies --    161.1700               204.0872               223.9814
 Red. masses --      5.8150                 5.2500                 3.8820
 Frc consts  --      0.0890                 0.1288                 0.1147
 IR Inten    --      0.8272                 8.2964                 3.4598

                     10                     11                     12
                      A                      A                      A
 Frequencies --    293.4915               300.9181               314.5166
 Red. masses --      7.1726                 4.4111                 6.7935
 Frc consts  --      0.3640                 0.2353                 0.3959
 IR Inten    --      2.0966                 5.4961                 1.3140

                     13                     14                     15
                      A                      A                      A
 Frequencies --    417.8725               452.6041               455.8530
 Red. masses --      6.1731                 4.6690                 4.9267
 Frc consts  --      0.6351                 0.5635                 0.6032
 IR Inten    --      7.3351                 5.5745                 5.1749

                     16                     17                     18
                      A                      A                      A
 Frequencies --    474.5345               540.1605               582.7395
 Red. masses --      4.3870                 7.1367                 4.4964
 Frc consts  --      0.5820                 1.2269                 0.8996
 IR Inten    --      6.4064                13.8194                 4.0423

                     19                     20                     21
                      A                      A                      A
 Frequencies --    635.7584               651.6929               688.7225
 Red. masses --      4.0479                10.0785                 4.0798
 Frc consts  --      0.9640                 2.5219                 1.1402
 IR Inten    --      1.7255                 7.5922                 1.8456

                     22                     23                     24
                      A                      A                      A
 Frequencies --    704.4548               759.9332               764.9027
 Red. masses --      6.4745                 8.9004                 7.9278
 Frc consts  --      1.8931                 3.0284                 2.7328
 IR Inten    --      8.6430                12.6141                38.6310

                     25                     26                     27
                      A                      A                      A
 Frequencies --    795.5943               809.7677               838.4772
 Red. masses --      4.9946                 2.4066                 6.4400
 Frc consts  --      1.8627                 0.9298                 2.6676
 IR Inten    --      0.5453                 1.6060                21.7101

                     28                     29                     30
                      A                      A                      A
 Frequencies --    852.8041               885.4514               938.5255
 Red. masses --      1.2718                 1.3328                 1.4360
 Frc consts  --      0.5450                 0.6157                 0.7453
 IR Inten    --     31.6717                 7.4799                 0.9591

                     31                     32                     33
                      A                      A                      A
 Frequencies --    981.1998               995.1479               998.3636
 Red. masses --      5.5070                 1.4959                 1.6250
 Frc consts  --      3.1238                 0.8728                 0.9543
 IR Inten    --      0.9407                 0.1040                 7.5375

                     34                     35                     36
                      A                      A                      A
 Frequencies --   1050.0479              1066.7021              1076.3340
 Red. masses --      2.9439                 3.7401                 1.7907
 Frc consts  --      1.9125                 2.5074                 1.2223
 IR Inten    --     37.7841                 8.5380                 1.8765

                     37                     38                     39
                      A                      A                      A
 Frequencies --   1141.1505              1153.7730              1186.6399
 Red. masses --      1.9884                 5.2117                 1.5834
 Frc consts  --      1.5256                 4.0876                 1.3137
 IR Inten    --     21.6991                34.4344                30.5444

                     40                     41                     42
                      A                      A                      A
 Frequencies --   1204.9878              1229.5722              1240.7451
 Red. masses --      2.8460                 2.1628                 1.3010
 Frc consts  --      2.4348                 1.9265                 1.1801
 IR Inten    --      4.0458                 5.9190                 2.6466

                     43                     44                     45
                      A                      A                      A
 Frequencies --   1279.6111              1330.4325              1362.6419
 Red. masses --      1.7068                 2.7687                 2.7711
 Frc consts  --      1.6466                 2.8874                 3.0315
 IR Inten    --     12.0926                53.3044                40.3056

                     46                     47                     48
                      A                      A                      A
 Frequencies --   1405.5326              1418.5752              1420.4358
 Red. masses --      1.1324                 1.2046                 2.3891
 Frc consts  --      1.3181                 1.4283                 2.8400
 IR Inten    --      3.6138                17.0087                39.4816

                     49                     50                     51
                      A                      A                      A
 Frequencies --   1457.5196              1548.2650              1563.7663
 Red. masses --      4.7130                 5.0716                 5.4183
 Frc consts  --      5.8990                 7.1628                 7.8065
 IR Inten    --      8.7296                 7.7612                 6.9347

                     52                     53                     54
                      A                      A                      A
 Frequencies --   1599.1015              1828.2853              2938.1135
 Red. masses --      6.3855                 9.8506                 1.0854
 Frc consts  --      9.6205                19.3999                 5.5204
 IR Inten    --     35.3060               241.5028                46.7247

                     55                     56                     57
                      A                      A                      A
 Frequencies --   3076.7492              3151.0328              3184.4904
 Red. masses --      1.0556                 1.1081                 1.0876
 Frc consts  --      5.8877                 6.4821                 6.4981
 IR Inten    --      5.0518                 0.8667                 5.8131

                     58                     59                     60
                      A                      A                      A
 Frequencies --   3192.4485              3199.8732              3240.2138
 Red. masses --      1.0915                 1.0958                 1.0958
 Frc consts  --      6.5543                 6.6109                 6.7785
 IR Inten    --      9.3958                 5.5185                 0.0245

 - Thermochemistry -
 -------------------
 Temperature   298.150 Kelvin.  Pressure   1.00000 Atm.
 Atom     1 has atomic number  8 and mass  15.99491

 Molecular mass:   237.00306 amu.
 Principal axes and moments of inertia in atomic units:
                           1         2         3
     Eigenvalues --  2235.078155768.944877602.10787
           X            0.99997  -0.00050  -0.00713
           Y            0.00050   1.00000  -0.00037
           Z            0.00713   0.00036   0.99997
 This molecule is an asymmetric top.
 Rotational symmetry number  1.
 Warning -- assumption of classical behavior for rotation
           may cause significant error
 Rotational temperatures (Kelvin)      0.03875     0.01501     0.01139
 Rotational constants (GHZ):           0.80746     0.31284     0.23740
 Zero-point vibrational energy     392772.7 (Joules/Mol)
                                   93.87493 (Kcal/Mol)
 Warning -- explicit consideration of  18 degrees of freedom as
           vibrations may cause significant error
 Vibrational temperatures:     47.41    51.36    77.84   110.52   131.30
          (Kelvin)            152.33   231.89   293.64   322.26   422.27
                              432.95   452.52   601.23   651.20   655.87
                              682.75   777.17   838.43   914.71   937.64
                              990.92  1013.55  1093.37  1100.52  1144.68
                             1165.08  1206.38  1226.99  1273.97  1350.33
                             1411.73  1431.80  1436.42  1510.78  1534.75
                             1548.60  1641.86  1660.02  1707.31  1733.71
                             1769.08  1785.16  1841.07  1914.20  1960.54
                             2022.25  2041.01  2043.69  2097.05  2227.61
                             2249.91  2300.75  2630.49  4227.29  4426.76
                             4533.63  4581.77  4593.22  4603.90  4661.94

 Zero-point correction=                           0.149599 (Hartree/Particle)
 Thermal correction to Energy=                    0.163073
 Thermal correction to Enthalpy=                  0.164017
 Thermal correction to Gibbs Free Energy=         0.106624
 Sum of electronic and zero-point Energies=          -1382.854211
 Sum of electronic and thermal Energies=             -1382.840737
 Sum of electronic and thermal Enthalpies=           -1382.839793
 Sum of electronic and thermal Free Energies=        -1382.897186

                     E (Thermal)             CV                S
                      KCal/Mol        Cal/Mol-Kelvin    Cal/Mol-Kelvin
 Total                  102.330             48.734            120.794
 Electronic               0.000              0.000              0.000
 Translational            0.889              2.981             42.290
 Rotational               0.889              2.981             32.949
 Vibrational            100.552             42.773             45.555
 Vibration     1          0.594              1.983              5.643
 Vibration     2          0.594              1.982              5.485
 Vibration     3          0.596              1.976              4.661
 Vibration     4          0.599              1.965              3.971
 Vibration     5          0.602              1.955              3.633
 Vibration     6          0.605              1.945              3.343
 Vibration     7          0.622              1.890              2.536
 Vibration     8          0.640              1.834              2.096
 Vibration     9          0.649              1.805              1.927
 Vibration    10          0.688              1.686              1.454
 Vibration    11          0.693              1.672              1.412
 Vibration    12          0.702              1.646              1.338
 Vibration    13          0.781              1.431              0.899
 Vibration    14          0.811              1.355              0.788
 Vibration    15          0.814              1.348              0.778
 Vibration    16          0.831              1.307              0.725
 Vibration    17          0.895              1.161              0.565
 Vibration    18          0.940              1.069              0.480

 Optimization completed.
    -- Stationary point found.
 Normal termination of Gaussian 16 at Sat May 27 15:50:41 2023.
