 Gaussian 16, Revision A.03,
 Gaussian 16:  ES64L-G16RevA.03 25-Dec-2016

 -----------------------------
 # opt freq b3lyp/6-31g(2df,p)
 -----------------------------

 -------------------
 Title Card Required
 -------------------
 Symbolic Z-matrix:
 Charge =  0 Multiplicity = 1

 SCF Done:  E(RB3LYP) =  -631.815065660     A.U. after   17 cycles
 SCF Done:  E(RB3LYP) =  -631.860092546     A.U. after   14 cycles
 SCF Done:  E(RB3LYP) =  -631.886721827     A.U. after   15 cycles
 SCF Done:  E(RB3LYP) =  -631.891623329     A.U. after   14 cycles
 SCF Done:  E(RB3LYP) =  -631.892711150     A.U. after   13 cycles
 SCF Done:  E(RB3LYP) =  -631.892835717     A.U. after   14 cycles
 SCF Done:  E(RB3LYP) =  -631.894438817     A.U. after   13 cycles
 SCF Done:  E(RB3LYP) =  -631.894692553     A.U. after   13 cycles
 SCF Done:  E(RB3LYP) =  -631.895458176     A.U. after   12 cycles
 SCF Done:  E(RB3LYP) =  -631.896195365     A.U. after   14 cycles
 SCF Done:  E(RB3LYP) =  -631.897419230     A.U. after   14 cycles
 SCF Done:  E(RB3LYP) =  -631.897681224     A.U. after   14 cycles
 SCF Done:  E(RB3LYP) =  -631.897748285     A.U. after   11 cycles
 SCF Done:  E(RB3LYP) =  -631.897777352     A.U. after   11 cycles
 SCF Done:  E(RB3LYP) =  -631.897793113     A.U. after   11 cycles
 SCF Done:  E(RB3LYP) =  -631.897800288     A.U. after   11 cycles
 SCF Done:  E(RB3LYP) =  -631.897802879     A.U. after   10 cycles
 SCF Done:  E(RB3LYP) =  -631.897803343     A.U. after    8 cycles
 SCF Done:  E(RB3LYP) =  -631.897803385     A.U. after    7 cycles
 Optimization completed.
    -- Stationary point found.
 Normal termination of Gaussian 16 at Sun May 28 22:31:45 2023.

 ----------------------------------------------------------------------
 #N Geom=AllCheck Guess=TCheck SCRF=Check GenChk RB3LYP/6-31G(2df,p) Fr
 eq
 ----------------------------------------------------------------------

 Structure from the checkpoint file:  "OdCC[C]Nc1ccc2cccccc1-2.chk"
 -------------------
 Title Card Required
 -------------------
 Charge =  0 Multiplicity = 1

                         Standard orientation:
 ---------------------------------------------------------------------
 Center     Atomic      Atomic             Coordinates (Angstroms)
 Number     Number       Type             X           Y           Z
 ---------------------------------------------------------------------
      1          8           0        5.338513   -0.602387   -0.931552
      2          6           0        4.417788   -0.936175   -0.233670
      3          6           0        3.609551    0.018574    0.631931
      4          6           0        2.135800   -0.211329    0.453869
      5          7           0        1.489961    0.919469    0.304786
      6          6           0        0.100871    1.108700    0.127296
      7          6           0       -0.454080    2.390327   -0.032413
      8          6           0       -1.836523    2.289021   -0.187380
      9          6           0       -2.192312    0.931582   -0.128500
     10          6           0       -3.484989    0.437176   -0.245036
     11          6           0       -3.934932   -0.879726   -0.200544
     12          6           0       -3.187208   -2.043608   -0.024395
     13          6           0       -1.814624   -2.200677    0.151388
     14          6           0       -0.813488   -1.228935    0.196319
     15          6           0       -0.934567    0.149799    0.077744
     16          1           0        4.082561   -1.992899   -0.165762
     17          1           0        3.975769    1.049240    0.472964
     18          1           0        3.840900   -0.271049    1.671740
     19          1           0        1.992222    1.818112    0.308117
     20          1           0        0.116276    3.312079   -0.034225
     21          1           0       -2.526129    3.108808   -0.329914
     22          1           0       -4.253568    1.194368   -0.392760
     23          1           0       -5.005979   -1.018021   -0.317991
     24          1           0       -3.763158   -2.966661   -0.024081
     25          1           0       -1.471887   -3.224944    0.269793
     26          1           0        0.207446   -1.574588    0.341372
 ---------------------------------------------------------------------

 SCF Done:  E(RB3LYP) =  -631.897803385     A.U. after    1 cycles

 The electronic state is 1-A.
 Alpha  occ. eigenvalues --  -19.13548 -14.39643 -10.26851 -10.21781 -10.21192
 Alpha  occ. eigenvalues --  -10.20931 -10.20133 -10.20081 -10.20003 -10.19985
 Alpha  occ. eigenvalues --  -10.19687 -10.19520 -10.19471 -10.19431 -10.17934
 Alpha  occ. eigenvalues --   -1.04287  -0.96982  -0.87749  -0.82868  -0.79026
 Alpha  occ. eigenvalues --   -0.77070  -0.74387  -0.70710  -0.66203  -0.64287
 Alpha  occ. eigenvalues --   -0.59638  -0.58510  -0.56104  -0.55017  -0.51808
 Alpha  occ. eigenvalues --   -0.51062  -0.47977  -0.46835  -0.45099  -0.44934
 Alpha  occ. eigenvalues --   -0.43482  -0.41886  -0.41386  -0.40646  -0.40312
 Alpha  occ. eigenvalues --   -0.39122  -0.37772  -0.37027  -0.35861  -0.35525
 Alpha  occ. eigenvalues --   -0.33900  -0.32744  -0.29940  -0.24965  -0.23984
 Alpha  occ. eigenvalues --   -0.20554  -0.19276
 Alpha virt. eigenvalues --   -0.07624  -0.05409  -0.01789   0.00944   0.06974
 Alpha virt. eigenvalues --    0.08012   0.08559   0.11642   0.12226   0.12492
 Alpha virt. eigenvalues --    0.13023   0.14516   0.15177   0.15348   0.15634

 Mulliken charges:
               1
     1  O   -0.239619
     2  C    0.175465
     3  C   -0.342516
     4  C   -0.113170
     5  N   -0.285240
     6  C    0.257267
     7  C   -0.199384
     8  C   -0.217728
     9  C    0.197619
    10  C   -0.126558
    11  C   -0.115090
    12  C   -0.087157
    13  C   -0.103424
    14  C   -0.161589
    15  C    0.092035
    16  H    0.088771
    17  H    0.086092
    18  H    0.142473
    19  H    0.215910
    20  H    0.099144
    21  H    0.099340
    22  H    0.099843
    23  H    0.098669
    24  H    0.103346
    25  H    0.101296
    26  H    0.134206
 Sum of Mulliken charges =  -0.00000

 Dipole moment (field-independent basis, Debye):
    X=             -3.4909    Y=              0.9722    Z=              1.4233  Tot=              3.8932
 Quadrupole moment (field-independent basis, Debye-Ang):
   XX=            -93.3861   YY=            -75.9424   ZZ=            -89.8925
   XY=              5.2105   XZ=             10.1344   YZ=             -0.8048

  Exact polarizability: 249.813  21.147 191.322   9.634  -5.089  70.210
 Approx polarizability: 396.146  64.995 397.508  16.924 -14.455 121.635

                      1                      2                      3
                      A                      A                      A
 Frequencies --     33.9652                40.4013                78.2111
 Red. masses --      4.7541                 8.6497                 4.7253
 Frc consts  --      0.0032                 0.0083                 0.0170
 IR Inten    --      1.8648                 2.0328                 0.5148

                      4                      5                      6
                      A                      A                      A
 Frequencies --    111.7616               153.6598               167.8242
 Red. masses --      2.9971                 3.8170                 3.9805
 Frc consts  --      0.0221                 0.0531                 0.0661
 IR Inten    --      1.5102                15.2114                 9.1903

                      7                      8                      9
                      A                      A                      A
 Frequencies --    183.4954               249.7688               317.9802
 Red. masses --      3.6759                 3.6975                 4.4518
 Frc consts  --      0.0729                 0.1359                 0.2652
 IR Inten    --      5.1116                 7.3115                 6.6439

                     10                     11                     12
                      A                      A                      A
 Frequencies --    327.2293               339.8792               379.8030
 Red. masses --      3.5523                 3.9796                 3.9967
 Frc consts  --      0.2241                 0.2709                 0.3397
 IR Inten    --      7.0261                 3.2085                 7.0762

                     13                     14                     15
                      A                      A                      A
 Frequencies --    408.0718               460.3897               471.6219
 Red. masses --      6.4772                 3.6704                 5.2584
 Frc consts  --      0.6355                 0.4584                 0.6891
 IR Inten    --      2.2222                 0.9558                 4.5340

                     16                     17                     18
                      A                      A                      A
 Frequencies --    508.8774               582.9202               599.3940
 Red. masses --      4.1168                 3.6479                 2.7891
 Frc consts  --      0.6281                 0.7303                 0.5904
 IR Inten    --     16.9223                 6.9773                 5.9542

                     19                     20                     21
                      A                      A                      A
 Frequencies --    639.6642               678.4755               713.8224
 Red. masses --      3.4747                 4.9131                 5.6783
 Frc consts  --      0.8377                 1.3325                 1.7047
 IR Inten    --      0.3648                 2.7758                 6.3599

                     22                     23                     24
                      A                      A                      A
 Frequencies --    740.0530               766.5180               775.0735
 Red. masses --      1.5689                 1.6875                 1.6093
 Frc consts  --      0.5063                 0.5842                 0.5696
 IR Inten    --      1.9014                10.8056                22.6966

                     25                     26                     27
                      A                      A                      A
 Frequencies --    791.1237               805.7676               848.8360
 Red. masses --      1.7312                 4.8594                 1.2746
 Frc consts  --      0.6384                 1.8589                 0.5411
 IR Inten    --     24.4071                10.6728                22.5457

                     28                     29                     30
                      A                      A                      A
 Frequencies --    889.6283               899.9807               901.7214
 Red. masses --      1.4434                 5.3511                 1.4316
 Frc consts  --      0.6730                 2.5536                 0.6858
 IR Inten    --      2.9453                 3.3427                 7.1134

                     31                     32                     33
                      A                      A                      A
 Frequencies --    964.6778               988.3511               991.6653
 Red. masses --      3.1269                 2.4255                 1.3786
 Frc consts  --      1.7144                 1.3960                 0.7988
 IR Inten    --      9.3215                28.4056                 1.9990

                     34                     35                     36
                      A                      A                      A
 Frequencies --   1008.8470              1015.1183              1028.0898
 Red. masses --      1.3122                 2.1046                 3.0846
 Frc consts  --      0.7869                 1.2778                 1.9210
 IR Inten    --      0.0850                36.1777                 6.4247

                     37                     38                     39
                      A                      A                      A
 Frequencies --   1052.6843              1060.4255              1070.2378
 Red. masses --      2.8902                 1.3448                 1.5041
 Frc consts  --      1.8870                 0.8910                 1.0150
 IR Inten    --     30.0859                 0.6632                 8.3195

                     40                     41                     42
                      A                      A                      A
 Frequencies --   1119.0907              1166.6412              1197.3446
 Red. masses --      4.0183                 1.3685                 1.8442
 Frc consts  --      2.9650                 1.0974                 1.5577
 IR Inten    --      8.5203                34.2274                 0.5031

                     43                     44                     45
                      A                      A                      A
 Frequencies --   1220.3624              1244.1361              1268.2644
 Red. masses --      1.6326                 1.3281                 1.4442
 Frc consts  --      1.4326                 1.2112                 1.3687
 IR Inten    --      5.9935                 0.2171                 6.3880

                     46                     47                     48
                      A                      A                      A
 Frequencies --   1323.8785              1328.9968              1346.6423
 Red. masses --      1.2548                 2.4637                 2.0354
 Frc consts  --      1.2957                 2.5638                 2.1747
 IR Inten    --      1.2510                 2.4314                 1.3087

                     49                     50                     51
                      A                      A                      A
 Frequencies --   1409.2170              1411.4705              1427.5662
 Red. masses --      1.1674                 1.3397                 2.2607
 Frc consts  --      1.3659                 1.5725                 2.7145
 IR Inten    --      8.1504                18.2053               116.2068

                     52                     53                     54
                      A                      A                      A
 Frequencies --   1438.9604              1458.3936              1477.5794
 Red. masses --      1.7988                 1.8241                 2.9534
 Frc consts  --      2.1944                 2.2858                 3.7991
 IR Inten    --     29.7145                 4.9762                 9.6647

                     55                     56                     57
                      A                      A                      A
 Frequencies --   1496.0859              1546.6307              1570.0565
 Red. masses --      2.6723                 4.5630                 3.1960
 Frc consts  --      3.5241                 6.4309                 4.6418
 IR Inten    --      2.8187                 9.6296                16.7673

                     58                     59                     60
                      A                      A                      A
 Frequencies --   1596.0724              1633.4508              1642.9472
 Red. masses --      2.7182                 6.7846                 4.8478
 Frc consts  --      4.0798                10.6657                 7.7098
 IR Inten    --     83.3480                37.6000                22.8626

                     61                     62                     63
                      A                      A                      A
 Frequencies --   1835.7423              2909.7254              2932.0253
 Red. masses --      9.8672                 1.0843                 1.0601
 Frc consts  --     19.5915                 5.4086                 5.3696
 IR Inten    --    254.2017                73.0746                68.4788

                     64                     65                     66
                      A                      A                      A
 Frequencies --   2998.5848              3136.7345              3142.9359
 Red. masses --      1.0967                 1.0838                 1.0854
 Frc consts  --      5.8100                 6.2831                 6.3169
 IR Inten    --     17.9867                 9.3242                 8.5302

                     67                     68                     69
                      A                      A                      A
 Frequencies --   3151.1213              3166.3481              3174.9547
 Red. masses --      1.0886                 1.0896                 1.0925
 Frc consts  --      6.3685                 6.4365                 6.4888
 IR Inten    --     16.6181                12.7327                29.2737

                     70                     71                     72
                      A                      A                      A
 Frequencies --   3197.5129              3234.8063              3273.3041
 Red. masses --      1.0912                 1.0976                 1.0707
 Frc consts  --      6.5734                 6.7667                 6.7589
 IR Inten    --      9.3259                 5.9605                18.7896

 - Thermochemistry -
 -------------------
 Temperature   298.150 Kelvin.  Pressure   1.00000 Atm.
 Atom     1 has atomic number  8 and mass  15.99491

 Molecular mass:   197.08406 amu.
 Principal axes and moments of inertia in atomic units:
                           1         2         3
     Eigenvalues --  1452.305836042.339247283.51654
           X            0.99996   0.00524   0.00730
           Y           -0.00521   0.99998  -0.00468
           Z           -0.00732   0.00465   0.99996
 This molecule is an asymmetric top.
 Rotational symmetry number  1.
 Warning -- assumption of classical behavior for rotation
           may cause significant error
 Rotational temperatures (Kelvin)      0.05964     0.01433     0.01189
 Rotational constants (GHZ):           1.24267     0.29868     0.24778
 Zero-point vibrational energy     535470.0 (Joules/Mol)
                                  127.98041 (Kcal/Mol)
 Warning -- explicit consideration of  18 degrees of freedom as
           vibrations may cause significant error
 Vibrational temperatures:     48.87    58.13   112.53   160.80   221.08
          (Kelvin)            241.46   264.01   359.36   457.50   470.81
                              489.01   546.45   587.12   662.40   678.56
                              732.16   838.69   862.39   920.33   976.17
                             1027.03  1064.77  1102.85  1115.16  1138.25
                             1159.32  1221.29  1279.98  1294.87  1297.38
                             1387.96  1422.02  1426.79  1451.51  1460.53
                             1479.19  1514.58  1525.72  1539.83  1610.12
                             1678.54  1722.71  1755.83  1790.03  1824.75
                             1904.77  1912.13  1937.52  2027.55  2030.79
                             2053.95  2070.34  2098.30  2125.91  2152.53
                             2225.26  2258.96  2296.39  2350.17  2363.83
                             2641.22  4186.45  4218.53  4314.29  4513.06
                             4521.98  4533.76  4555.67  4568.05  4600.51
                             4654.16  4709.55

 Zero-point correction=                           0.203950 (Hartree/Particle)
 Thermal correction to Energy=                    0.216686
 Thermal correction to Enthalpy=                  0.217630
 Thermal correction to Gibbs Free Energy=         0.163362
 Sum of electronic and zero-point Energies=           -631.693854
 Sum of electronic and thermal Energies=              -631.681117
 Sum of electronic and thermal Enthalpies=            -631.680173
 Sum of electronic and thermal Free Energies=         -631.734442

                     E (Thermal)             CV                S
                      KCal/Mol        Cal/Mol-Kelvin    Cal/Mol-Kelvin
 Total                  135.972             48.983            114.217
 Electronic               0.000              0.000              0.000
 Translational            0.889              2.981             41.740
 Rotational               0.889              2.981             32.525
 Vibrational            134.195             43.021             39.952
 Vibration     1          0.594              1.983              5.583
 Vibration     2          0.594              1.981              5.239
 Vibration     3          0.600              1.964              3.935
 Vibration     4          0.607              1.940              3.238
 Vibration     5          0.619              1.899              2.626
 Vibration     6          0.625              1.882              2.460
 Vibration     7          0.631              1.862              2.293
 Vibration     8          0.663              1.763              1.732
 Vibration     9          0.704              1.639              1.320
 Vibration    10          0.711              1.621              1.274
 Vibration    11          0.720              1.596              1.213
 Vibration    12          0.750              1.513              1.040
 Vibration    13          0.773              1.453              0.933
 Vibration    14          0.818              1.338              0.765
 Vibration    15          0.829              1.313              0.733
 Vibration    16          0.864              1.230              0.636
 Vibration    17          0.940              1.068              0.480
 Vibration    18          0.957              1.033              0.451

                           ! Non-Optimized Parameters !
 Normal termination of Gaussian 16 at Mon May 29 00:04:14 2023.
