 Gaussian 16, Revision A.03,
 Gaussian 16:  ES64L-G16RevA.03 25-Dec-2016

 -----------------------------
 # opt freq b3lyp/6-31g(2df,p)
 -----------------------------

 -------------------
 Title Card Required
 -------------------
 Symbolic Z-matrix:
 Charge =  0 Multiplicity = 1

 SCF Done:  E(RB3LYP) =  -516.225849925     A.U. after   15 cycles
 SCF Done:  E(RB3LYP) =  -516.284041304     A.U. after   15 cycles
 SCF Done:  E(RB3LYP) =  -516.189967025     A.U. after   17 cycles
 SCF Done:  E(RB3LYP) =  -516.313769649     A.U. after   15 cycles
 SCF Done:  E(RB3LYP) =  -516.319931612     A.U. after   17 cycles
 SCF Done:  E(RB3LYP) =  -516.323258210     A.U. after   15 cycles
 SCF Done:  E(RB3LYP) =  -516.324461986     A.U. after   15 cycles
 SCF Done:  E(RB3LYP) =  -516.324719080     A.U. after   14 cycles
 SCF Done:  E(RB3LYP) =  -516.325487020     A.U. after   14 cycles
 SCF Done:  E(RB3LYP) =  -516.325708790     A.U. after   13 cycles
 SCF Done:  E(RB3LYP) =  -516.326033273     A.U. after   12 cycles
 SCF Done:  E(RB3LYP) =  -516.326044215     A.U. after   13 cycles
 SCF Done:  E(RB3LYP) =  -516.326111723     A.U. after   13 cycles
 SCF Done:  E(RB3LYP) =  -516.326151492     A.U. after   12 cycles
 SCF Done:  E(RB3LYP) =  -516.326210109     A.U. after   13 cycles
 SCF Done:  E(RB3LYP) =  -516.326216101     A.U. after   11 cycles
 SCF Done:  E(RB3LYP) =  -516.326218498     A.U. after    9 cycles
 SCF Done:  E(RB3LYP) =  -516.326218687     A.U. after    8 cycles
 SCF Done:  E(RB3LYP) =  -516.326218711     A.U. after    7 cycles
 Optimization completed.
    -- Stationary point found.
 Normal termination of Gaussian 16 at Sun May 28 04:04:54 2023.

 ----------------------------------------------------------------------
 #N Geom=AllCheck Guess=TCheck SCRF=Check GenChk RB3LYP/6-31G(2df,p) Fr
 eq
 ----------------------------------------------------------------------

 Structure from the checkpoint file:  "OdCdCdC1CC12CCdCCCdN2.chk"
 -------------------
 Title Card Required
 -------------------
 Charge =  0 Multiplicity = 1

                         Standard orientation:
 ---------------------------------------------------------------------
 Center     Atomic      Atomic             Coordinates (Angstroms)
 Number     Number       Type             X           Y           Z
 ---------------------------------------------------------------------
      1          8           0       -4.359630   -0.922919   -0.858427
      2          6           0       -3.435858   -0.383880   -0.377683
      3          6           0       -2.550233    0.320676    0.231262
      4          6           0       -1.325884    0.646411    0.547912
      5          6           0       -0.411255    1.512664    1.280754
      6          6           0        0.136002    0.389839    0.363146
      7          6           0        0.719448    0.786608   -0.992735
      8          6           0        2.198781    1.074622   -0.928185
      9          6           0        3.080461    0.133704   -0.602905
     10          6           0        2.677718   -1.285917   -0.276322
     11          6           0        1.623672   -1.433167    0.813406
     12          7           0        0.595570   -0.743740    1.095110
     13          1           0       -0.315558    1.353563    2.351312
     14          1           0       -0.283845    2.542807    0.956683
     15          1           0        0.169427    1.651275   -1.374784
     16          1           0        0.524123   -0.032136   -1.699722
     17          1           0        2.535135    2.082824   -1.151783
     18          1           0        4.140745    0.366701   -0.565741
     19          1           0        3.552526   -1.860783    0.041096
     20          1           0        2.312854   -1.796359   -1.182963
     21          1           0        1.795529   -2.287717    1.475644
 ---------------------------------------------------------------------

 SCF Done:  E(RB3LYP) =  -516.326218711     A.U. after    1 cycles

 The electronic state is 1-A.
 Alpha  occ. eigenvalues --  -19.18657 -14.33121 -10.28481 -10.24288 -10.24223
 Alpha  occ. eigenvalues --  -10.23365 -10.20682 -10.20540 -10.20352 -10.19578
 Alpha  occ. eigenvalues --  -10.19345 -10.18444  -1.08963  -0.94488  -0.86967
 Alpha  occ. eigenvalues --   -0.81594  -0.77372  -0.74907  -0.68689  -0.64601
 Alpha  occ. eigenvalues --   -0.63375  -0.56060  -0.55028  -0.50412  -0.49552
 Alpha  occ. eigenvalues --   -0.48638  -0.48223  -0.45419  -0.43463  -0.43193
 Alpha  occ. eigenvalues --   -0.43043  -0.41295  -0.40383  -0.38190  -0.37727
 Alpha  occ. eigenvalues --   -0.35775  -0.34000  -0.28836  -0.27896  -0.27313
 Alpha  occ. eigenvalues --   -0.24102  -0.20665
 Alpha virt. eigenvalues --   -0.08282  -0.01361   0.00637   0.05513   0.07414
 Alpha virt. eigenvalues --    0.09819   0.10726   0.12400   0.13742   0.14243
 Alpha virt. eigenvalues --    0.15941   0.16892   0.17237   0.18652   0.19547

 Mulliken charges:
               1
     1  O   -0.251156
     2  C    0.361157
     3  C   -0.333173
     4  C    0.290612
     5  C   -0.399810
     6  C    0.240503
     7  C   -0.343918
     8  C   -0.058372
     9  C   -0.047557
    10  C   -0.324914
    11  C    0.008294
    12  N   -0.219199
    13  H    0.151510
    14  H    0.138990
    15  H    0.110727
    16  H    0.122831
    17  H    0.095008
    18  H    0.099027
    19  H    0.116066
    20  H    0.138730
    21  H    0.104644
 Sum of Mulliken charges =  -0.00000

 Dipole moment (field-independent basis, Debye):
    X=              4.2639    Y=              0.9793    Z=             -0.5127  Tot=              4.4049
 Quadrupole moment (field-independent basis, Debye-Ang):
   XX=            -77.1247   YY=            -64.4124   ZZ=            -69.3769
   XY=             -4.6580   XZ=             -1.9781   YZ=             -0.1952

  Exact polarizability: 172.147   1.244 104.478  12.493   4.389  82.725
 Approx polarizability: 265.613  15.895 177.671  40.079  21.179 137.568

                      1                      2                      3
                      A                      A                      A
 Frequencies --     35.5926                56.3158                75.2809
 Red. masses --      4.8460                 5.3520                 4.9552
 Frc consts  --      0.0036                 0.0100                 0.0165
 IR Inten    --      1.3479                 0.4192                 0.4679

                      4                      5                      6
                      A                      A                      A
 Frequencies --    140.3028               180.2542               252.0620
 Red. masses --      2.3870                 7.6629                 4.1973
 Frc consts  --      0.0277                 0.1467                 0.1571
 IR Inten    --      0.7336                 0.0075                 3.1735

                      7                      8                      9
                      A                      A                      A
 Frequencies --    278.3374               321.3907               335.4521
 Red. masses --      3.4961                 2.7923                 3.2842
 Frc consts  --      0.1596                 0.1699                 0.2177
 IR Inten    --      1.1898                 1.9691                 1.9128

                     10                     11                     12
                      A                      A                      A
 Frequencies --    416.5577               441.1239               473.7256
 Red. masses --      3.3027                 2.8210                 5.9053
 Frc consts  --      0.3377                 0.3234                 0.7808
 IR Inten    --      5.5609                 3.2507                18.2124

                     13                     14                     15
                      A                      A                      A
 Frequencies --    491.7979               538.5353               599.3695
 Red. masses --      3.7692                 4.6352                 3.4356
 Frc consts  --      0.5371                 0.7920                 0.7272
 IR Inten    --      1.5143                 5.7517                 1.4985

                     16                     17                     18
                      A                      A                      A
 Frequencies --    651.5221               663.3432               709.4672
 Red. masses --     10.5328                 2.0674                 2.2797
 Frc consts  --      2.6342                 0.5360                 0.6761
 IR Inten    --     15.0180                11.5887                 9.4911

                     19                     20                     21
                      A                      A                      A
 Frequencies --    725.2957               820.3622               834.0056
 Red. masses --      2.2548                 3.1849                 3.0947
 Frc consts  --      0.6989                 1.2629                 1.2682
 IR Inten    --      1.3132                64.9996                 1.0594

                     22                     23                     24
                      A                      A                      A
 Frequencies --    878.3320               881.4058               920.0404
 Red. masses --      1.7839                 2.0381                 2.3503
 Frc consts  --      0.8108                 0.9329                 1.1721
 IR Inten    --      9.3634                 0.6131                10.8326

                     25                     26                     27
                      A                      A                      A
 Frequencies --    941.1476               956.2102               985.7932
 Red. masses --      2.3311                 3.2569                 1.8900
 Frc consts  --      1.2166                 1.7545                 1.0821
 IR Inten    --     14.6802                17.7057                 1.7044

                     28                     29                     30
                      A                      A                      A
 Frequencies --    989.5078              1015.4198              1049.8493
 Red. masses --      1.3832                 1.9422                 1.5241
 Frc consts  --      0.7980                 1.1799                 0.9897
 IR Inten    --      1.9138                11.9999                 1.5137

                     31                     32                     33
                      A                      A                      A
 Frequencies --   1053.4878              1094.8452              1192.9832
 Red. masses --      2.1163                 2.6740                 2.0729
 Frc consts  --      1.3839                 1.8885                 1.7382
 IR Inten    --      5.0581                 4.5654                14.5613

                     34                     35                     36
                      A                      A                      A
 Frequencies --   1210.6701              1236.6603              1255.9398
 Red. masses --      1.2703                 1.4342                 1.3721
 Frc consts  --      1.0970                 1.2923                 1.2752
 IR Inten    --      1.2471                 3.9558                 8.5089

                     37                     38                     39
                      A                      A                      A
 Frequencies --   1306.6019              1351.1802              1357.3179
 Red. masses --      1.9751                 1.5288                 1.7268
 Frc consts  --      1.9867                 1.6445                 1.8744
 IR Inten    --      4.2076                 4.0948                 4.7344

                     40                     41                     42
                      A                      A                      A
 Frequencies --   1398.5405              1424.9039              1435.8680
 Red. masses --      1.4289                 1.3018                 1.2049
 Frc consts  --      1.6467                 1.5572                 1.4637
 IR Inten    --      1.2122                 9.8041                 6.3748

                     43                     44                     45
                      A                      A                      A
 Frequencies --   1462.6314              1481.0288              1725.5699
 Red. masses --      1.1050                 1.0875                 6.9844
 Frc consts  --      1.3928                 1.4055                12.2531
 IR Inten    --      7.0193                 5.4446                10.8330

                     46                     47                     48
                      A                      A                      A
 Frequencies --   1737.7809              1872.9868              2271.8916
 Red. masses --      9.5944                12.2341                12.4084
 Frc consts  --     17.0710                25.2866                37.7346
 IR Inten    --     23.3891                 5.3376              1563.2661

                     49                     50                     51
                      A                      A                      A
 Frequencies --   2977.9219              3009.3815              3062.5482
 Red. masses --      1.0719                 1.0687                 1.0865
 Frc consts  --      5.6005                 5.7023                 6.0039
 IR Inten    --     13.0117                13.6689                20.5952

                     52                     53                     54
                      A                      A                      A
 Frequencies --   3081.8292              3083.7782              3108.2530
 Red. masses --      1.0912                 1.0895                 1.0533
 Frc consts  --      6.1062                 6.1045                 5.9957
 IR Inten    --     40.6871                16.9102                 3.2369

                     55                     56                     57
                      A                      A                      A
 Frequencies --   3157.1284              3180.5302              3196.2894
 Red. masses --      1.0838                 1.0983                 1.1142
 Frc consts  --      6.3648                 6.5461                 6.7064
 IR Inten    --      4.0298                30.1715                 0.8675

 - Thermochemistry -
 -------------------
 Temperature   298.150 Kelvin.  Pressure   1.00000 Atm.
 Atom     1 has atomic number  8 and mass  15.99491

 Molecular mass:   159.06841 amu.
 Principal axes and moments of inertia in atomic units:
                           1         2         3
     Eigenvalues --   927.936973570.961963729.83740
           X            0.99989  -0.01184  -0.00928
           Y            0.01175   0.99988  -0.01025
           Z            0.00940   0.01014   0.99990
 This molecule is an asymmetric top.
 Rotational symmetry number  1.
 Warning -- assumption of classical behavior for rotation
           may cause significant error
 Rotational temperatures (Kelvin)      0.09334     0.02426     0.02322
 Rotational constants (GHZ):           1.94490     0.50539     0.48387
 Zero-point vibrational energy     426985.2 (Joules/Mol)
                                  102.05191 (Kcal/Mol)
 Warning -- explicit consideration of  15 degrees of freedom as
           vibrations may cause significant error
 Vibrational temperatures:     51.21    81.03   108.31   201.86   259.35
          (Kelvin)            362.66   400.47   462.41   482.64   599.33
                              634.68   681.59   707.59   774.83   862.36
                              937.40   954.40  1020.77  1043.54  1180.32
                             1199.95  1263.72  1268.15  1323.73  1354.10
                             1375.77  1418.34  1423.68  1460.96  1510.50
                             1515.73  1575.24  1716.44  1741.88  1779.28
                             1807.02  1879.91  1944.05  1952.88  2012.19
                             2050.12  2065.89  2104.40  2130.87  2482.71
                             2500.28  2694.81  3268.75  4284.57  4329.83
                             4406.32  4434.06  4436.87  4472.08  4542.40
                             4576.07  4598.75

 Zero-point correction=                           0.162630 (Hartree/Particle)
 Thermal correction to Energy=                    0.173482
 Thermal correction to Enthalpy=                  0.174426
 Thermal correction to Gibbs Free Energy=         0.124876
 Sum of electronic and zero-point Energies=           -516.163589
 Sum of electronic and thermal Energies=              -516.152737
 Sum of electronic and thermal Enthalpies=            -516.151792
 Sum of electronic and thermal Free Energies=         -516.201343

                     E (Thermal)             CV                S
                      KCal/Mol        Cal/Mol-Kelvin    Cal/Mol-Kelvin
 Total                  108.862             40.779            104.288
 Electronic               0.000              0.000              0.000
 Translational            0.889              2.981             41.102
 Rotational               0.889              2.981             30.892
 Vibrational            107.084             34.818             32.294
 Vibration     1          0.594              1.982              5.490
 Vibration     2          0.596              1.975              4.582
 Vibration     3          0.599              1.965              4.010
 Vibration     4          0.615              1.913              2.800
 Vibration     5          0.629              1.867              2.326
 Vibration     6          0.664              1.759              1.716
 Vibration     7          0.679              1.714              1.544
 Vibration     8          0.707              1.633              1.303
 Vibration     9          0.717              1.605              1.234
 Vibration    10          0.780              1.434              0.904
 Vibration    11          0.801              1.380              0.823
 Vibration    12          0.831              1.308              0.727
 Vibration    13          0.848              1.268              0.679
 Vibration    14          0.894              1.165              0.568
 Vibration    15          0.957              1.033              0.451

                           ! Non-Optimized Parameters !
 Normal termination of Gaussian 16 at Sun May 28 04:53:10 2023.
