 Gaussian 16, Revision A.03,
 Gaussian 16:  ES64L-G16RevA.03 25-Dec-2016

 -----------------------------
 # opt freq b3lyp/6-31g(2df,p)
 -----------------------------

 -------------------
 Title Card Required
 -------------------
 Symbolic Z-matrix:
 Charge =  0 Multiplicity = 1

 SCF Done:  E(RB3LYP) =  -611.776271072     A.U. after   14 cycles
 SCF Done:  E(RB3LYP) =  -611.784828732     A.U. after   13 cycles
 SCF Done:  E(RB3LYP) =  -611.788762898     A.U. after   13 cycles
 SCF Done:  E(RB3LYP) =  -611.790366675     A.U. after   15 cycles
 SCF Done:  E(RB3LYP) =  -611.791994203     A.U. after   13 cycles
 SCF Done:  E(RB3LYP) =  -611.791977557     A.U. after   14 cycles
 SCF Done:  E(RB3LYP) =  -611.795258059     A.U. after   12 cycles
 SCF Done:  E(RB3LYP) =  -611.796060528     A.U. after   11 cycles
 SCF Done:  E(RB3LYP) =  -611.796218592     A.U. after   12 cycles
 SCF Done:  E(RB3LYP) =  -611.796353184     A.U. after   11 cycles
 SCF Done:  E(RB3LYP) =  -611.799316532     A.U. after   11 cycles
 SCF Done:  E(RB3LYP) =  -611.799469581     A.U. after   11 cycles
 SCF Done:  E(RB3LYP) =  -611.799482350     A.U. after   10 cycles
 SCF Done:  E(RB3LYP) =  -611.799500984     A.U. after   10 cycles
 SCF Done:  E(RB3LYP) =  -611.799502935     A.U. after    8 cycles
 SCF Done:  E(RB3LYP) =  -611.799503177     A.U. after    7 cycles
 SCF Done:  E(RB3LYP) =  -611.799503378     A.U. after    7 cycles
 SCF Done:  E(RB3LYP) =  -611.799503467     A.U. after    7 cycles
 SCF Done:  E(RB3LYP) =  -611.799503491     A.U. after    6 cycles
 Optimization completed.
    -- Stationary point found.
 Normal termination of Gaussian 16 at Sun May 28 05:56:10 2023.

 ----------------------------------------------------------------------
 #N Geom=AllCheck Guess=TCheck SCRF=Check GenChk RB3LYP/6-31G(2df,p) Fr
 eq
 ----------------------------------------------------------------------

 Structure from the checkpoint file:  "OdCqOrC1CqdOrCCCdC1CO.chk"
 -------------------
 Title Card Required
 -------------------
 Charge =  0 Multiplicity = 1

                         Standard orientation:
 ---------------------------------------------------------------------
 Center     Atomic      Atomic             Coordinates (Angstroms)
 Number     Number       Type             X           Y           Z
 ---------------------------------------------------------------------
      1          8           0        0.230145   -2.152944    1.073250
      2          6           0        0.897083   -1.538263    0.287599
      3          8           0        2.150249   -1.899024   -0.016432
      4          6           0        0.395603   -0.284019   -0.488219
      5          6           0        1.427353    0.829958   -0.277291
      6          8           0        2.548249    0.704443   -0.733572
      7          6           0        1.023484    1.990413    0.593189
      8          6           0       -0.403634    2.488008    0.323186
      9          6           0       -1.373356    1.358642    0.124382
     10          6           0       -1.038295    0.113158   -0.213703
     11          6           0       -2.093571   -0.942440   -0.495693
     12          8           0       -3.416232   -0.521930   -0.218183
     13          1           0        2.568651   -1.196364   -0.552759
     14          1           0        0.497242   -0.566928   -1.547346
     15          1           0        1.776913    2.776210    0.507642
     16          1           0        1.068178    1.600120    1.621502
     17          1           0       -0.410316    3.135989   -0.565122
     18          1           0       -0.727142    3.127451    1.151989
     19          1           0       -2.430390    1.589213    0.213939
     20          1           0       -1.841994   -1.863275    0.041216
     21          1           0       -2.072627   -1.182693   -1.568560
     22          1           0       -3.535791   -0.556829    0.736282
 ---------------------------------------------------------------------

 SCF Done:  E(RB3LYP) =  -611.799503491     A.U. after    1 cycles

 The electronic state is 1-A.
 Alpha  occ. eigenvalues --  -19.18492 -19.16492 -19.14400 -19.13417 -10.32282
 Alpha  occ. eigenvalues --  -10.30299 -10.23393 -10.22992 -10.21449 -10.21140
 Alpha  occ. eigenvalues --  -10.20410 -10.19285  -1.10776  -1.07306  -1.02610
 Alpha  occ. eigenvalues --   -1.02439  -0.85719  -0.79177  -0.75609  -0.69676
 Alpha  occ. eigenvalues --   -0.65324  -0.61617  -0.58187  -0.55435  -0.51618
 Alpha  occ. eigenvalues --   -0.51086  -0.49497  -0.48747  -0.46867  -0.45303
 Alpha  occ. eigenvalues --   -0.44771  -0.43971  -0.43476  -0.41599  -0.40811
 Alpha  occ. eigenvalues --   -0.39282  -0.37667  -0.37039  -0.35459  -0.33834
 Alpha  occ. eigenvalues --   -0.32045  -0.28910  -0.28720  -0.27163  -0.24964
 Alpha virt. eigenvalues --   -0.05232   0.00442   0.01063   0.07444   0.07956
 Alpha virt. eigenvalues --    0.10664   0.11806   0.12628   0.13922   0.15355
 Alpha virt. eigenvalues --    0.16014   0.16970   0.17882   0.18569   0.19717

 Mulliken charges:
               1
     1  O   -0.314358
     2  C    0.429024
     3  O   -0.364175
     4  C   -0.392019
     5  C    0.392509
     6  O   -0.341948
     7  C   -0.306987
     8  C   -0.279493
     9  C   -0.152699
    10  C    0.255701
    11  C   -0.155346
    12  O   -0.407892
    13  H    0.317084
    14  H    0.141963
    15  H    0.132252
    16  H    0.149116
    17  H    0.127759
    18  H    0.119993
    19  H    0.105001
    20  H    0.139904
    21  H    0.115555
    22  H    0.289055
 Sum of Mulliken charges =  -0.00000

 Dipole moment (field-independent basis, Debye):
    X=             -0.5648    Y=              3.1878    Z=             -0.1518  Tot=              3.2411
 Quadrupole moment (field-independent basis, Debye-Ang):
   XX=            -77.1986   YY=            -71.2699   ZZ=            -67.3857
   XY=              1.2104   XZ=             -3.7493   YZ=              6.0643

  Exact polarizability: 101.801  -0.032 107.021  -6.606   4.947  71.121
 Approx polarizability: 148.825  -1.987 159.072 -19.009   4.239 120.441

                      1                      2                      3
                      A                      A                      A
 Frequencies --     52.6517                73.7853                91.3210
 Red. masses --      4.4657                 3.6636                 8.3540
 Frc consts  --      0.0073                 0.0118                 0.0410
 IR Inten    --      3.5217                 5.9563                 1.6520

                      4                      5                      6
                      A                      A                      A
 Frequencies --    129.1247               195.4825               205.2102
 Red. masses --      2.8791                 5.2392                 4.1307
 Frc consts  --      0.0283                 0.1180                 0.1025
 IR Inten    --      1.6496                 5.3509                 2.2450

                      7                      8                      9
                      A                      A                      A
 Frequencies --    235.9429               255.9237               321.2493
 Red. masses --      4.0475                 2.4800                 1.1605
 Frc consts  --      0.1328                 0.0957                 0.0706
 IR Inten    --      4.4283                22.9291               106.9972

                     10                     11                     12
                      A                      A                      A
 Frequencies --    348.3905               391.5484               417.3661
 Red. masses --      6.0690                 4.2920                 6.0298
 Frc consts  --      0.4340                 0.3877                 0.6189
 IR Inten    --      2.0047                 1.9231                 1.9440

                     13                     14                     15
                      A                      A                      A
 Frequencies --    435.7231               504.9549               571.7738
 Red. masses --      4.3309                 4.8737                 3.2662
 Frc consts  --      0.4845                 0.7322                 0.6291
 IR Inten    --      3.6184                 5.4585                10.0108

                     16                     17                     18
                      A                      A                      A
 Frequencies --    605.2508               615.3635               700.1052
 Red. masses --      4.8198                 4.3416                 4.1813
 Frc consts  --      1.0403                 0.9686                 1.2075
 IR Inten    --      3.1961                16.6237                13.8428

                     19                     20                     21
                      A                      A                      A
 Frequencies --    739.0015               762.4294               775.0041
 Red. masses --      2.7405                 1.2813                 2.8100
 Frc consts  --      0.8818                 0.4388                 0.9944
 IR Inten    --      8.7069                69.9249                 7.7207

                     22                     23                     24
                      A                      A                      A
 Frequencies --    825.8952               879.1736               923.3799
 Red. masses --      1.8517                 2.8874                 1.7148
 Frc consts  --      0.7442                 1.3149                 0.8614
 IR Inten    --     17.7166                 3.8490                 1.9003

                     25                     26                     27
                      A                      A                      A
 Frequencies --    930.5529               988.1642              1005.1796
 Red. masses --      2.8771                 1.7435                 2.6307
 Frc consts  --      1.4679                 1.0031                 1.5661
 IR Inten    --      2.5736                18.6580                50.5497

                     28                     29                     30
                      A                      A                      A
 Frequencies --   1035.9668              1080.2027              1090.2855
 Red. masses --      2.1439                 2.6215                 2.7535
 Frc consts  --      1.3557                 1.8022                 1.9285
 IR Inten    --     11.6106                15.0663                21.9710

                     31                     32                     33
                      A                      A                      A
 Frequencies --   1135.6462              1159.0355              1189.1166
 Red. masses --      1.9888                 2.3233                 2.0140
 Frc consts  --      1.5112                 1.8389                 1.6779
 IR Inten    --     39.0502                38.3618                51.4949

                     34                     35                     36
                      A                      A                      A
 Frequencies --   1209.4888              1225.8211              1231.3432
 Red. masses --      1.6075                 1.3074                 1.7680
 Frc consts  --      1.3855                 1.1575                 1.5794
 IR Inten    --     47.2019                23.6602                 7.9856

                     37                     38                     39
                      A                      A                      A
 Frequencies --   1259.2316              1305.5000              1329.2136
 Red. masses --      1.4171                 1.3364                 1.6328
 Frc consts  --      1.3239                 1.3420                 1.6997
 IR Inten    --     16.5680                 4.7382                 0.5234

                     40                     41                     42
                      A                      A                      A
 Frequencies --   1354.1745              1377.0397              1404.3707
 Red. masses --      1.6872                 1.5648                 1.2415
 Frc consts  --      1.8229                 1.7483                 1.4426
 IR Inten    --      7.1869                20.0446               159.6678

                     43                     44                     45
                      A                      A                      A
 Frequencies --   1409.7499              1411.0143              1451.7946
 Red. masses --      1.3546                 1.4366                 1.0855
 Frc consts  --      1.5862                 1.6852                 1.3480
 IR Inten    --    228.1622                36.7882                 8.6154

                     46                     47                     48
                      A                      A                      A
 Frequencies --   1489.1941              1499.3245              1741.7351
 Red. masses --      1.0857                 1.0921                 7.5552
 Frc consts  --      1.4187                 1.4464                13.5040
 IR Inten    --      2.4437                 4.6447                 1.7186

                     49                     50                     51
                      A                      A                      A
 Frequencies --   1774.0939              1862.0581              2995.4473
 Red. masses --     11.3650                 9.4985                 1.0800
 Frc consts  --     21.0753                19.4041                 5.7093
 IR Inten    --    159.7096               271.0199                 4.4599

                     52                     53                     54
                      A                      A                      A
 Frequencies --   3003.7747              3008.8673              3012.5815
 Red. masses --      1.0715                 1.0665                 1.0657
 Frc consts  --      5.6963                 5.6886                 5.6985
 IR Inten    --      6.9086                33.5089                28.5755

                     55                     56                     57
                      A                      A                      A
 Frequencies --   3058.0197              3071.1522              3112.8365
 Red. masses --      1.0920                 1.0950                 1.0930
 Frc consts  --      6.0167                 6.0852                 6.2398
 IR Inten    --     20.7349                 7.4701                12.2540

                     58                     59                     60
                      A                      A                      A
 Frequencies --   3180.4387              3556.6071              3819.6852
 Red. masses --      1.0881                 1.0671                 1.0663
 Frc consts  --      6.4845                 7.9530                 9.1661
 IR Inten    --      2.7104               179.1542                26.8225

 - Thermochemistry -
 -------------------
 Temperature   298.150 Kelvin.  Pressure   1.00000 Atm.
 Atom     1 has atomic number  8 and mass  15.99491

 Molecular mass:   170.05791 amu.
 Principal axes and moments of inertia in atomic units:
                           1         2         3
     Eigenvalues --  1528.169532121.257753279.14743
           X            0.99978   0.02097  -0.00004
           Y           -0.02096   0.99939   0.02776
           Z            0.00062  -0.02775   0.99961
 This molecule is an asymmetric top.
 Rotational symmetry number  1.
 Warning -- assumption of classical behavior for rotation
           may cause significant error
 Rotational temperatures (Kelvin)      0.05668     0.04083     0.02641
 Rotational constants (GHZ):           1.18098     0.85079     0.55037
 Zero-point vibrational energy     459514.1 (Joules/Mol)
                                  109.82651 (Kcal/Mol)
 Warning -- explicit consideration of  17 degrees of freedom as
           vibrations may cause significant error
 Vibrational temperatures:     75.75   106.16   131.39   185.78   281.26
          (Kelvin)            295.25   339.47   368.22   462.21   501.26
                              563.35   600.50   626.91   726.52   822.65
                              870.82   885.37  1007.30  1063.26  1096.97
                             1115.06  1188.28  1264.93  1328.54  1338.86
                             1421.75  1446.23  1490.53  1554.17  1568.68
                             1633.94  1667.59  1710.87  1740.18  1763.68
                             1771.63  1811.75  1878.32  1912.44  1948.36
                             1981.25  2020.58  2028.32  2030.13  2088.81
                             2142.62  2157.19  2505.97  2552.53  2679.09
                             4309.78  4321.76  4329.09  4334.43  4399.81
                             4418.70  4478.68  4575.94  5117.16  5495.68

 Zero-point correction=                           0.175020 (Hartree/Particle)
 Thermal correction to Energy=                    0.186325
 Thermal correction to Enthalpy=                  0.187270
 Thermal correction to Gibbs Free Energy=         0.137418
 Sum of electronic and zero-point Energies=           -611.624484
 Sum of electronic and thermal Energies=              -611.613178
 Sum of electronic and thermal Enthalpies=            -611.612234
 Sum of electronic and thermal Free Energies=         -611.662086

                     E (Thermal)             CV                S
                      KCal/Mol        Cal/Mol-Kelvin    Cal/Mol-Kelvin
 Total                  116.921             42.210            104.922
 Electronic               0.000              0.000              0.000
 Translational            0.889              2.981             41.301
 Rotational               0.889              2.981             30.742
 Vibrational            115.143             36.249             32.879
 Vibration     1          0.596              1.977              4.715
 Vibration     2          0.599              1.966              4.050
 Vibration     3          0.602              1.955              3.632
 Vibration     4          0.612              1.924              2.959
 Vibration     5          0.636              1.846              2.175
 Vibration     6          0.640              1.832              2.086
 Vibration     7          0.655              1.786              1.833
 Vibration     8          0.666              1.753              1.689
 Vibration     9          0.707              1.633              1.304
 Vibration    10          0.726              1.579              1.173
 Vibration    11          0.759              1.488              0.994
 Vibration    12          0.780              1.433              0.901
 Vibration    13          0.796              1.392              0.840
 Vibration    14          0.860              1.239              0.646
 Vibration    15          0.928              1.092              0.501
 Vibration    16          0.964              1.021              0.441
 Vibration    17          0.975              0.999              0.424

 Optimization completed.
    -- Stationary point found.
 Normal termination of Gaussian 16 at Sun May 28 06:49:33 2023.
