 Gaussian 16, Revision A.03,
 Gaussian 16:  ES64L-G16RevA.03 25-Dec-2016

 -----------------------------
 # opt freq b3lyp/6-31g(2df,p)
 -----------------------------

 -------------------
 Title Card Required
 -------------------
 Symbolic Z-matrix:
 Charge =  0 Multiplicity = 1

 SCF Done:  E(RB3LYP) =  -650.950796935     A.U. after   14 cycles
 SCF Done:  E(RB3LYP) =  -650.960019753     A.U. after   14 cycles
 SCF Done:  E(RB3LYP) =  -650.960269548     A.U. after   13 cycles
 SCF Done:  E(RB3LYP) =  -650.959306122     A.U. after   13 cycles
 SCF Done:  E(RB3LYP) =  -650.960918843     A.U. after   12 cycles
 SCF Done:  E(RB3LYP) =  -650.961118967     A.U. after   12 cycles
 SCF Done:  E(RB3LYP) =  -650.961446630     A.U. after   12 cycles
 SCF Done:  E(RB3LYP) =  -650.962499540     A.U. after   13 cycles
 SCF Done:  E(RB3LYP) =  -650.955250764     A.U. after   15 cycles
 SCF Done:  E(RB3LYP) =  -650.963430228     A.U. after   13 cycles
 SCF Done:  E(RB3LYP) =  -650.962405220     A.U. after   15 cycles
 SCF Done:  E(RB3LYP) =  -650.966888947     A.U. after   13 cycles
 SCF Done:  E(RB3LYP) =  -650.967936542     A.U. after   10 cycles
 SCF Done:  E(RB3LYP) =  -650.968170496     A.U. after   13 cycles
 SCF Done:  E(RB3LYP) =  -650.968234979     A.U. after   11 cycles
 SCF Done:  E(RB3LYP) =  -650.968241888     A.U. after   10 cycles
 SCF Done:  E(RB3LYP) =  -650.968243253     A.U. after    9 cycles
 SCF Done:  E(RB3LYP) =  -650.968243395     A.U. after    7 cycles
 SCF Done:  E(RB3LYP) =  -650.968243432     A.U. after    7 cycles
 Optimization completed.
    -- Stationary point found.
 Normal termination of Gaussian 16 at Mon May 29 06:32:54 2023.

 ----------------------------------------------------------------------
 #N Geom=AllCheck Guess=TCheck SCRF=Check GenChk RB3LYP/6-31G(2df,p) Fr
 eq
 ----------------------------------------------------------------------

 Structure from the checkpoint file:  "OdCqCdCCCOOrC1CCC1dO.chk"
 -------------------
 Title Card Required
 -------------------
 Charge =  0 Multiplicity = 1

                         Standard orientation:
 ---------------------------------------------------------------------
 Center     Atomic      Atomic             Coordinates (Angstroms)
 Number     Number       Type             X           Y           Z
 ---------------------------------------------------------------------
      1          8           0       -1.219560    2.340515   -0.336182
      2          6           0       -1.348561    1.138468   -0.218222
      3          6           0       -0.223551    0.251493    0.182021
      4          6           0        1.003486    0.737851    0.390338
      5          6           0        2.196887   -0.057136    0.813697
      6          6           0        3.337791    0.054554   -0.204470
      7          8           0        4.434621   -0.646625    0.358390
      8          8           0        5.546550   -0.479593   -0.547294
      9          6           0       -2.690252    0.469606   -0.475384
     10          6           0       -2.796763   -0.722461   -1.486898
     11          6           0       -3.638712   -1.543685   -0.464516
     12          6           0       -3.265654   -0.499026    0.595562
     13          8           0       -3.308744   -0.467428    1.788578
     14          1           0       -0.430249   -0.806524    0.322826
     15          1           0        1.144667    1.807462    0.239558
     16          1           0        1.935040   -1.109320    0.962179
     17          1           0        2.570056    0.326437    1.772755
     18          1           0        3.610073    1.103952   -0.375642
     19          1           0        3.050151   -0.388599   -1.168269
     20          1           0        5.624747   -1.376512   -0.903131
     21          1           0       -3.413827    1.259703   -0.695500
     22          1           0       -1.827953   -1.180425   -1.696501
     23          1           0       -3.281965   -0.481250   -2.432513
     24          1           0       -3.338727   -2.572766   -0.250581
     25          1           0       -4.712987   -1.535096   -0.675890
 ---------------------------------------------------------------------

 SCF Done:  E(RB3LYP) =  -650.968243432     A.U. after    1 cycles

 The electronic state is 1-A.
 Alpha  occ. eigenvalues --  -19.19858 -19.19505 -19.14984 -19.12982 -10.28342
 Alpha  occ. eigenvalues --  -10.27438 -10.24290 -10.21525 -10.21162 -10.20707
 Alpha  occ. eigenvalues --  -10.20642 -10.20540 -10.19822  -1.12168  -1.05942
 Alpha  occ. eigenvalues --   -1.03965  -0.91870  -0.86028  -0.81933  -0.74936
 Alpha  occ. eigenvalues --   -0.71062  -0.64677  -0.64163  -0.60105  -0.56117
 Alpha  occ. eigenvalues --   -0.53607  -0.53049  -0.50104  -0.48838  -0.47522
 Alpha  occ. eigenvalues --   -0.46670  -0.45387  -0.44292  -0.43865  -0.42984
 Alpha  occ. eigenvalues --   -0.40677  -0.40328  -0.39847  -0.38366  -0.37053
 Alpha  occ. eigenvalues --   -0.36546  -0.36482  -0.35862  -0.34554  -0.30430
 Alpha  occ. eigenvalues --   -0.27658  -0.26730  -0.26679  -0.24144
 Alpha virt. eigenvalues --   -0.06380  -0.03130   0.02797   0.04987   0.07748
 Alpha virt. eigenvalues --    0.08130   0.10353   0.10999   0.12047   0.12916
 Alpha virt. eigenvalues --    0.14151   0.14916   0.15565   0.15883   0.16460

 Mulliken charges:
               1
     1  O   -0.328115
     2  C    0.380356
     3  C   -0.174487
     4  C   -0.020807
     5  C   -0.283515
     6  C   -0.004678
     7  O   -0.188030
     8  O   -0.319656
     9  C   -0.209622
    10  C   -0.259591
    11  C   -0.335875
    12  C    0.382169
    13  O   -0.281075
    14  H    0.090977
    15  H    0.129135
    16  H    0.116051
    17  H    0.139049
    18  H    0.115152
    19  H    0.096621
    20  H    0.312169
    21  H    0.124567
    22  H    0.121829
    23  H    0.122557
    24  H    0.133676
    25  H    0.141146
 Sum of Mulliken charges =  -0.00000

 Dipole moment (field-independent basis, Debye):
    X=             -0.2654    Y=             -3.4173    Z=             -3.1045  Tot=              4.6245
 Quadrupole moment (field-independent basis, Debye-Ang):
   XX=            -76.1564   YY=            -77.5653   ZZ=            -78.6780
   XY=             -0.5835   XZ=              4.4554   YZ=              4.6071

  Exact polarizability: 152.750   4.592 101.225   3.208   0.142  88.990
 Approx polarizability: 186.757   6.114 161.223   4.011  -3.292 143.524

                      1                      2                      3
                      A                      A                      A
 Frequencies --     24.0954                30.7857                55.1652
 Red. masses --      4.2926                 6.8788                 2.9720
 Frc consts  --      0.0015                 0.0038                 0.0053
 IR Inten    --      0.7054                 2.7245                 1.6609

                      4                      5                      6
                      A                      A                      A
 Frequencies --     70.5414                77.0332                92.9110
 Red. masses --      2.9349                 4.4131                 4.6907
 Frc consts  --      0.0086                 0.0154                 0.0239
 IR Inten    --      4.8270                 1.8815                 4.6747

                      7                      8                      9
                      A                      A                      A
 Frequencies --    106.5499               149.5680               180.1647
 Red. masses --      4.1273                 2.8625                 3.2306
 Frc consts  --      0.0276                 0.0377                 0.0618
 IR Inten    --      2.0725                 2.6536                 5.7985

                     10                     11                     12
                      A                      A                      A
 Frequencies --    219.3458               226.1090               245.7925
 Red. masses --      1.1633                 4.8168                 3.9892
 Frc consts  --      0.0330                 0.1451                 0.1420
 IR Inten    --     93.0657                 8.5841                 1.6390

                     13                     14                     15
                      A                      A                      A
 Frequencies --    319.0590               390.6469               408.6658
 Red. masses --      3.7804                 4.3242                 3.9756
 Frc consts  --      0.2267                 0.3888                 0.3912
 IR Inten    --      3.2198                 5.3083                 2.1255

                     16                     17                     18
                      A                      A                      A
 Frequencies --    454.4395               492.6930               521.1003
 Red. masses --      3.6695                 3.9619                 5.1237
 Frc consts  --      0.4465                 0.5666                 0.8197
 IR Inten    --      8.0748                20.8410                 2.2426

                     19                     20                     21
                      A                      A                      A
 Frequencies --    574.4422               661.7750               697.7554
 Red. masses --      2.4814                 4.9653                 1.8051
 Frc consts  --      0.4824                 1.2812                 0.5178
 IR Inten    --      2.1388                 5.3348                 2.6738

                     22                     23                     24
                      A                      A                      A
 Frequencies --    770.2025               800.1854               809.4534
 Red. masses --      1.8043                 1.4461                 2.3593
 Frc consts  --      0.6306                 0.5455                 0.9108
 IR Inten    --      1.0160                 0.3498                17.6850

                     25                     26                     27
                      A                      A                      A
 Frequencies --    869.2051               907.5092               928.0449
 Red. masses --      2.1070                 2.2270                 2.6854
 Frc consts  --      0.9379                 1.0806                 1.3627
 IR Inten    --      5.1592                 4.8419                18.2522

                     28                     29                     30
                      A                      A                      A
 Frequencies --    942.4595               953.2748              1009.9479
 Red. masses --      4.3784                 2.7607                 2.1862
 Frc consts  --      2.2914                 1.4781                 1.3138
 IR Inten    --      0.9332                44.5481                 0.8011

                     31                     32                     33
                      A                      A                      A
 Frequencies --   1013.6431              1035.4664              1042.3086
 Red. masses --      1.5977                 3.2723                 1.6269
 Frc consts  --      0.9672                 2.0671                 1.0413
 IR Inten    --     15.8961                26.7783                26.1376

                     34                     35                     36
                      A                      A                      A
 Frequencies --   1049.7494              1068.1218              1093.7921
 Red. masses --      1.9937                 3.5204                 4.1359
 Frc consts  --      1.2944                 2.3664                 2.9153
 IR Inten    --      4.0864               123.7049                13.0289

                     37                     38                     39
                      A                      A                      A
 Frequencies --   1135.1904              1186.6632              1203.3292
 Red. masses --      2.0787                 2.2363                 1.3734
 Frc consts  --      1.5783                 1.8554                 1.1717
 IR Inten    --      9.5627               106.2260                 0.3054

                     40                     41                     42
                      A                      A                      A
 Frequencies --   1218.9205              1228.0452              1231.9426
 Red. masses --      1.2346                 1.3070                 1.4161
 Frc consts  --      1.0807                 1.1613                 1.2663
 IR Inten    --      2.9276                10.3707                 7.8725

                     43                     44                     45
                      A                      A                      A
 Frequencies --   1257.1436              1281.4215              1286.3774
 Red. masses --      1.4275                 1.2138                 1.4044
 Frc consts  --      1.3292                 1.1743                 1.3692
 IR Inten    --      5.7070                 6.3755                25.4013

                     46                     47                     48
                      A                      A                      A
 Frequencies --   1287.9720              1329.8295              1356.5831
 Red. masses --      1.4532                 1.3558                 1.5202
 Frc consts  --      1.4204                 1.4127                 1.6483
 IR Inten    --      7.1902                15.0745                78.0471

                     49                     50                     51
                      A                      A                      A
 Frequencies --   1387.8407              1403.4612              1440.9733
 Red. masses --      1.1780                 1.3490                 1.0947
 Frc consts  --      1.3368                 1.5656                 1.3393
 IR Inten    --     50.3731                 1.4022                 6.9201

                     52                     53                     54
                      A                      A                      A
 Frequencies --   1482.7795              1493.1942              1527.3939
 Red. masses --      1.0935                 1.0969                 1.0863
 Frc consts  --      1.4166                 1.4410                 1.4931
 IR Inten    --      3.6338                 2.0446                 6.0424

                     55                     56                     57
                      A                      A                      A
 Frequencies --   1688.3693              1774.5188              1890.0217
 Red. masses --      7.1038                 9.6095                12.8578
 Frc consts  --     11.9309                17.8284                27.0614
 IR Inten    --    181.3134               141.6560               239.8573

                     58                     59                     60
                      A                      A                      A
 Frequencies --   3001.8311              3026.0133              3046.8207
 Red. masses --      1.0574                 1.0627                 1.1033
 Frc consts  --      5.6137                 5.7333                 6.0347
 IR Inten    --     25.5840                14.1372                24.2670

                     61                     62                     63
                      A                      A                      A
 Frequencies --   3057.9508              3079.4711              3083.1109
 Red. masses --      1.0597                 1.0837                 1.0614
 Frc consts  --      5.8383                 6.0551                 5.9446
 IR Inten    --      9.2908                 1.1247                18.9590

                     64                     65                     66
                      A                      A                      A
 Frequencies --   3088.0083              3111.2121              3141.9678
 Red. masses --      1.0998                 1.1038                 1.1067
 Frc consts  --      6.1789                 6.2949                 6.4369
 IR Inten    --     21.4843                 4.8549                17.9847

                     67                     68                     69
                      A                      A                      A
 Frequencies --   3150.6926              3159.7064              3749.5074
 Red. masses --      1.0893                 1.0883                 1.0687
 Frc consts  --      6.3708                 6.4014                 8.8521
 IR Inten    --      1.1116                13.4841                34.1589

 - Thermochemistry -
 -------------------
 Temperature   298.150 Kelvin.  Pressure   1.00000 Atm.
 Atom     1 has atomic number  8 and mass  15.99491

 Molecular mass:   184.07356 amu.
 Principal axes and moments of inertia in atomic units:
                           1         2         3
     Eigenvalues --  1103.269036957.449577182.44009
           X            0.99994   0.00617   0.00866
           Y           -0.00685   0.99665   0.08154
           Z           -0.00813  -0.08159   0.99663
 This molecule is an asymmetric top.
 Rotational symmetry number  1.
 Warning -- assumption of classical behavior for rotation
           may cause significant error
 Rotational temperatures (Kelvin)      0.07851     0.01245     0.01206
 Rotational constants (GHZ):           1.63581     0.25940     0.25127
 Zero-point vibrational energy     520855.7 (Joules/Mol)
                                  124.48749 (Kcal/Mol)
 Warning -- explicit consideration of  19 degrees of freedom as
           vibrations may cause significant error
 Vibrational temperatures:     34.67    44.29    79.37   101.49   110.83
          (Kelvin)            133.68   153.30   215.19   259.22   315.59
                              325.32   353.64   459.05   562.05   587.98
                              653.84   708.88   749.75   826.49   952.15
                             1003.91  1108.15  1151.29  1164.62  1250.59
                             1305.70  1335.25  1355.99  1371.55  1453.09
                             1458.41  1489.81  1499.65  1510.36  1536.79
                             1573.72  1633.29  1707.34  1731.32  1753.75
                             1766.88  1772.49  1808.75  1843.68  1850.81
                             1853.10  1913.33  1951.82  1996.79  2019.27
                             2073.24  2133.39  2148.37  2197.58  2429.19
                             2553.14  2719.32  4318.97  4353.76  4383.70
                             4399.71  4430.67  4435.91  4442.96  4476.34
                             4520.59  4533.14  4546.11  5394.70

 Zero-point correction=                           0.198383 (Hartree/Particle)
 Thermal correction to Energy=                    0.212683
 Thermal correction to Enthalpy=                  0.213627
 Thermal correction to Gibbs Free Energy=         0.154201
 Sum of electronic and zero-point Energies=           -650.769860
 Sum of electronic and thermal Energies=              -650.755561
 Sum of electronic and thermal Enthalpies=            -650.754616
 Sum of electronic and thermal Free Energies=         -650.814042

                     E (Thermal)             CV                S
                      KCal/Mol        Cal/Mol-Kelvin    Cal/Mol-Kelvin
 Total                  133.461             49.536            125.073
 Electronic               0.000              0.000              0.000
 Translational            0.889              2.981             41.537
 Rotational               0.889              2.981             32.378
 Vibrational            131.683             43.574             51.158
 Vibration     1          0.593              1.985              6.264
 Vibration     2          0.594              1.984              5.778
 Vibration     3          0.596              1.976              4.623
 Vibration     4          0.598              1.968              4.138
 Vibration     5          0.599              1.964              3.965
 Vibration     6          0.602              1.954              3.598
 Vibration     7          0.605              1.944              3.331
 Vibration     8          0.618              1.903              2.678
 Vibration     9          0.629              1.867              2.327
 Vibration    10          0.647              1.812              1.964
 Vibration    11          0.650              1.801              1.910
 Vibration    12          0.660              1.770              1.761
 Vibration    13          0.705              1.637              1.315
 Vibration    14          0.758              1.490              0.998
 Vibration    15          0.773              1.451              0.931
 Vibration    16          0.813              1.351              0.782
 Vibration    17          0.848              1.266              0.677
 Vibration    18          0.876              1.203              0.607
 Vibration    19          0.931              1.087              0.496

 Optimization completed.
    -- Stationary point found.
 Normal termination of Gaussian 16 at Mon May 29 07:26:05 2023.
