 Gaussian 16, Revision A.03,
 Gaussian 16:  ES64L-G16RevA.03 25-Dec-2016

 -----------------------------
 # opt freq b3lyp/6-31g(2df,p)
 -----------------------------

 -------------------
 Title Card Required
 -------------------
 Symbolic Z-matrix:
 Charge =  0 Multiplicity = 1

 SCF Done:  E(RB3LYP) =  -1581.81589728     A.U. after   15 cycles
 SCF Done:  E(RB3LYP) =  -1581.84448166     A.U. after   13 cycles
 SCF Done:  E(RB3LYP) =  -1581.85361844     A.U. after   14 cycles
 SCF Done:  E(RB3LYP) =  -1581.85582050     A.U. after   13 cycles
 SCF Done:  E(RB3LYP) =  -1581.85551359     A.U. after   15 cycles
 SCF Done:  E(RB3LYP) =  -1581.85821097     A.U. after   13 cycles
 SCF Done:  E(RB3LYP) =  -1581.85872148     A.U. after   13 cycles
 SCF Done:  E(RB3LYP) =  -1581.85887298     A.U. after   12 cycles
 SCF Done:  E(RB3LYP) =  -1581.85892369     A.U. after   11 cycles
 SCF Done:  E(RB3LYP) =  -1581.85894279     A.U. after   10 cycles
 SCF Done:  E(RB3LYP) =  -1581.85894803     A.U. after    9 cycles
 SCF Done:  E(RB3LYP) =  -1581.85895230     A.U. after   10 cycles
 SCF Done:  E(RB3LYP) =  -1581.85895791     A.U. after   11 cycles
 SCF Done:  E(RB3LYP) =  -1581.85896164     A.U. after   11 cycles
 SCF Done:  E(RB3LYP) =  -1581.85896208     A.U. after    8 cycles
 SCF Done:  E(RB3LYP) =  -1581.85896224     A.U. after    9 cycles
 SCF Done:  E(RB3LYP) =  -1581.85896223     A.U. after    8 cycles
 SCF Done:  E(RB3LYP) =  -1581.85896224     A.U. after    6 cycles
 Optimization completed.
    -- Stationary point found.
 Normal termination of Gaussian 16 at Mon May 22 11:35:14 2023.

 ----------------------------------------------------------------------
 #N Geom=AllCheck Guess=TCheck SCRF=Check GenChk RB3LYP/6-31G(2df,p) Fr
 eq
 ----------------------------------------------------------------------

 Structure from the checkpoint file:  "OdCqSrCSC1SC1C1CCC1.chk"
 -------------------
 Title Card Required
 -------------------
 Charge =  0 Multiplicity = 1

                         Standard orientation:
 ---------------------------------------------------------------------
 Center     Atomic      Atomic             Coordinates (Angstroms)
 Number     Number       Type             X           Y           Z
 ---------------------------------------------------------------------
      1          8           0        3.682346    1.785723    0.816610
      2          6           0        3.092372    0.923979    0.226499
      3         16           0        3.907472   -0.244779   -0.889528
      4          6           0        1.578936    0.760255    0.316946
      5         16           0        1.045457   -0.990915    0.437103
      6          6           0       -0.643325   -0.817367   -0.175867
      7         16           0       -1.704691   -2.274637    0.055619
      8          6           0       -1.772563   -0.567514    0.758524
      9          6           0       -2.935132    0.333209    0.425185
     10          6           0       -2.708578    1.877939    0.477259
     11          6           0       -3.681193    2.009270   -0.724680
     12          6           0       -3.463448    0.500377   -1.025563
     13          1           0        5.097151    0.375130   -0.762750
     14          1           0        1.151756    1.182201   -0.599917
     15          1           0        1.240815    1.348208    1.171961
     16          1           0       -0.692726   -0.379540   -1.169688
     17          1           0       -1.486906   -0.557699    1.808685
     18          1           0       -3.768007    0.069183    1.085393
     19          1           0       -1.683262    2.139763    0.196207
     20          1           0       -2.958065    2.395625    1.406092
     21          1           0       -3.420535    2.723154   -1.508567
     22          1           0       -4.703716    2.213194   -0.395577
     23          1           0       -2.680701    0.348974   -1.773944
     24          1           0       -4.328812   -0.099571   -1.311685
 ---------------------------------------------------------------------

 SCF Done:  E(RB3LYP) =  -1581.85896224     A.U. after    1 cycles

 The electronic state is 1-A.
 Alpha  occ. eigenvalues --  -88.89460 -88.89366 -88.88054 -19.15469 -10.31347
 Alpha  occ. eigenvalues --  -10.26372 -10.24186 -10.24149 -10.20840 -10.19654
 Alpha  occ. eigenvalues --  -10.19329 -10.19288  -7.96049  -7.95684  -7.94363
 Alpha  occ. eigenvalues --   -5.92452  -5.92199  -5.92076  -5.91835  -5.91677
 Alpha  occ. eigenvalues --   -5.91173  -5.90825  -5.90550  -5.89844  -1.06982
 Alpha  occ. eigenvalues --   -0.89325  -0.84993  -0.81528  -0.76227  -0.70870
 Alpha  occ. eigenvalues --   -0.68416  -0.67037  -0.60713  -0.59915  -0.55395
 Alpha  occ. eigenvalues --   -0.55148  -0.50370  -0.49388  -0.48342  -0.47347
 Alpha  occ. eigenvalues --   -0.45855  -0.44220  -0.42500  -0.40418  -0.40043
 Alpha  occ. eigenvalues --   -0.39218  -0.38886  -0.37575  -0.36143  -0.33744
 Alpha  occ. eigenvalues --   -0.33341  -0.32186  -0.31720  -0.29895  -0.27546
 Alpha  occ. eigenvalues --   -0.27029  -0.24312  -0.23979
 Alpha virt. eigenvalues --   -0.03657  -0.01085   0.00207   0.02405   0.03826
 Alpha virt. eigenvalues --    0.06690   0.07065   0.07527   0.08103   0.10403
 Alpha virt. eigenvalues --    0.10811   0.12185   0.12925   0.13724   0.16104

 Mulliken charges:
               1
     1  O   -0.278185
     2  C    0.322622
     3  S   -0.224714
     4  C   -0.301500
     5  S   -0.077590
     6  C   -0.046993
     7  S   -0.203748
     8  C   -0.030024
     9  C    0.020127
    10  C   -0.233928
    11  C   -0.212604
    12  C   -0.224301
    13  H    0.176894
    14  H    0.157456
    15  H    0.158189
    16  H    0.138819
    17  H    0.133376
    18  H    0.091749
    19  H    0.098217
    20  H    0.105798
    21  H    0.102844
    22  H    0.109640
    23  H    0.106483
    24  H    0.111370
 Sum of Mulliken charges =  -0.00000

 Dipole moment (field-independent basis, Debye):
    X=             -2.2803    Y=              2.1004    Z=             -0.7137  Tot=              3.1813
 Quadrupole moment (field-independent basis, Debye-Ang):
   XX=            -91.1723   YY=           -101.0716   ZZ=            -93.6681
   XY=             -5.5506   XZ=             -5.4226   YZ=             -1.5186

  Exact polarizability: 178.404   5.085 143.198  -4.676   8.514 109.073
 Approx polarizability: 235.258  18.143 246.195  -7.236  26.649 189.492

                      1                      2                      3
                      A                      A                      A
 Frequencies --     15.1702                25.5205                39.7438
 Red. masses --      5.6440                 8.2936                 6.3229
 Frc consts  --      0.0008                 0.0032                 0.0059
 IR Inten    --      0.6163                 0.5156                 0.3795

                      4                      5                      6
                      A                      A                      A
 Frequencies --     57.1627                84.7571               114.1253
 Red. masses --      3.0516                 3.5834                 6.2782
 Frc consts  --      0.0059                 0.0152                 0.0482
 IR Inten    --      1.5666                 0.2681                 1.2255

                      7                      8                      9
                      A                      A                      A
 Frequencies --    130.1713               168.0209               212.9673
 Red. masses --      3.3545                 4.4932                 3.1699
 Frc consts  --      0.0335                 0.0747                 0.0847
 IR Inten    --      1.1709                 0.7905                 0.5528

                     10                     11                     12
                      A                      A                      A
 Frequencies --    260.0149               291.2945               332.8274
 Red. masses --      6.8568                 5.7263                 4.5758
 Frc consts  --      0.2731                 0.2863                 0.2986
 IR Inten    --      0.8180                 0.2218                 2.6522

                     13                     14                     15
                      A                      A                      A
 Frequencies --    360.5504               398.2594               445.7717
 Red. masses --      4.5554                 1.1776                 5.1449
 Frc consts  --      0.3489                 0.1101                 0.6024
 IR Inten    --      3.4383                16.6646                11.1037

                     16                     17                     18
                      A                      A                      A
 Frequencies --    503.9360               544.7784               594.9972
 Red. masses --      2.4237                 5.3984                 4.3177
 Frc consts  --      0.3626                 0.9440                 0.9006
 IR Inten    --      1.0895                 6.1291                56.6437

                     19                     20                     21
                      A                      A                      A
 Frequencies --    626.2846               656.2601               698.3194
 Red. masses --      2.8315                 5.5408                 4.3266
 Frc consts  --      0.6544                 1.4060                 1.2431
 IR Inten    --      8.1068                32.3750                 4.6906

                     22                     23                     24
                      A                      A                      A
 Frequencies --    750.1792               771.5879               788.7170
 Red. masses --      2.3894                 2.4988                 1.3322
 Frc consts  --      0.7923                 0.8765                 0.4883
 IR Inten    --     10.2383                21.0986                 1.0441

                     25                     26                     27
                      A                      A                      A
 Frequencies --    791.8417               868.8349               894.0800
 Red. masses --      3.6690                 1.7007                 2.2660
 Frc consts  --      1.3554                 0.7564                 1.0673
 IR Inten    --      0.5632                30.4756                 0.3697

                     28                     29                     30
                      A                      A                      A
 Frequencies --    912.1136               934.8728               944.8577
 Red. masses --      1.3761                 2.4237                 2.2235
 Frc consts  --      0.6745                 1.2481                 1.1696
 IR Inten    --     19.3968                 1.3976                 0.8238

                     31                     32                     33
                      A                      A                      A
 Frequencies --    966.3293              1008.6811              1017.1682
 Red. masses --      1.8670                 1.2752                 1.3746
 Frc consts  --      1.0272                 0.7644                 0.8380
 IR Inten    --      0.8948                 3.7519                 7.1080

                     34                     35                     36
                      A                      A                      A
 Frequencies --   1039.6330              1065.3859              1088.4262
 Red. masses --      1.7823                 2.4305                 1.6549
 Frc consts  --      1.1350                 1.6254                 1.1551
 IR Inten    --      4.0767               138.3078                 3.6469

                     37                     38                     39
                      A                      A                      A
 Frequencies --   1128.1448              1164.1909              1191.7040
 Red. masses --      2.3670                 1.3906                 1.5354
 Frc consts  --      1.7749                 1.1104                 1.2847
 IR Inten    --      1.7954                68.4215                 2.4542

                     40                     41                     42
                      A                      A                      A
 Frequencies --   1207.0972              1227.6371              1236.6729
 Red. masses --      1.4531                 1.2152                 1.3413
 Frc consts  --      1.2475                 1.0791                 1.2086
 IR Inten    --      7.6905                17.8291                 3.8942

                     43                     44                     45
                      A                      A                      A
 Frequencies --   1246.2231              1257.3428              1263.6957
 Red. masses --      1.2136                 1.2895                 1.2065
 Frc consts  --      1.1105                 1.2011                 1.1352
 IR Inten    --      0.5868                 1.5160                 2.0754

                     46                     47                     48
                      A                      A                      A
 Frequencies --   1277.2473              1290.3143              1360.9326
 Red. masses --      1.4650                 1.3896                 1.8586
 Frc consts  --      1.4081                 1.3631                 2.0281
 IR Inten    --      1.0522                 0.4314                14.0996

                     49                     50                     51
                      A                      A                      A
 Frequencies --   1391.2418              1445.5271              1476.8252
 Red. masses --      1.5175                 1.0846                 1.0906
 Frc consts  --      1.7305                 1.3353                 1.4014
 IR Inten    --     12.4457                 8.2487                 0.9812

                     52                     53                     54
                      A                      A                      A
 Frequencies --   1486.3300              1508.5718              1806.4382
 Red. masses --      1.0829                 1.1380                12.2203
 Frc consts  --      1.4095                 1.5259                23.4951
 IR Inten    --      2.0669                 1.5406               259.0756

                     55                     56                     57
                      A                      A                      A
 Frequencies --   2673.6016              3043.5246              3046.3338
 Red. masses --      1.0379                 1.0604                 1.0761
 Frc consts  --      4.3713                 5.7872                 5.8839
 IR Inten    --      1.7961                 4.7141                11.2996

                     58                     59                     60
                      A                      A                      A
 Frequencies --   3051.8451              3063.4798              3067.4207
 Red. masses --      1.0673                 1.0588                 1.0625
 Frc consts  --      5.8567                 5.8548                 5.8902
 IR Inten    --     32.2812                42.4381                16.5882

                     61                     62                     63
                      A                      A                      A
 Frequencies --   3104.4616              3114.6041              3120.5570
 Red. masses --      1.1045                 1.1060                 1.1022
 Frc consts  --      6.2715                 6.3215                 6.3235
 IR Inten    --     19.8159                19.9440                 2.8034

                     64                     65                     66
                      A                      A                      A
 Frequencies --   3127.4089              3131.4572              3139.3778
 Red. masses --      1.1060                 1.0885                 1.0868
 Frc consts  --      6.3734                 6.2890                 6.3109
 IR Inten    --     51.6416                 2.7100                 6.8085

 - Thermochemistry -
 -------------------
 Temperature   298.150 Kelvin.  Pressure   1.00000 Atm.
 Atom     1 has atomic number  8 and mass  15.99491

 Molecular mass:   220.00503 amu.
 Principal axes and moments of inertia in atomic units:
                           1         2         3
     Eigenvalues --  1757.658186170.533857266.51902
           X            0.99978  -0.02087   0.00264
           Y            0.02088   0.99977  -0.00567
           Z           -0.00252   0.00573   0.99998
 This molecule is an asymmetric top.
 Rotational symmetry number  1.
 Warning -- assumption of classical behavior for rotation
           may cause significant error
 Rotational temperatures (Kelvin)      0.04928     0.01404     0.01192
 Rotational constants (GHZ):           1.02679     0.29248     0.24836
 Zero-point vibrational energy     484809.7 (Joules/Mol)
                                  115.87230 (Kcal/Mol)
 Warning -- explicit consideration of  18 degrees of freedom as
           vibrations may cause significant error
 Vibrational temperatures:     21.83    36.72    57.18    82.24   121.95
          (Kelvin)            164.20   187.29   241.74   306.41   374.10
                              419.11   478.86   518.75   573.01   641.37
                              725.05   783.81   856.07   901.08   944.21
                             1004.73  1079.34  1110.14  1134.79  1139.28
                             1250.06  1286.38  1312.33  1345.07  1359.44
                             1390.33  1451.27  1463.48  1495.80  1532.85
                             1566.00  1623.15  1675.01  1714.60  1736.74
                             1766.30  1779.30  1793.04  1809.04  1818.18
                             1837.67  1856.47  1958.08  2001.69  2079.79
                             2124.82  2138.50  2170.50  2599.06  3846.72
                             4378.95  4382.99  4390.92  4407.66  4413.33
                             4466.63  4481.22  4489.79  4499.64  4505.47
                             4516.86

 Zero-point correction=                           0.184654 (Hartree/Particle)
 Thermal correction to Energy=                    0.198455
 Thermal correction to Enthalpy=                  0.199400
 Thermal correction to Gibbs Free Energy=         0.140026
 Sum of electronic and zero-point Energies=          -1581.674308
 Sum of electronic and thermal Energies=             -1581.660507
 Sum of electronic and thermal Enthalpies=           -1581.659563
 Sum of electronic and thermal Free Energies=        -1581.718936

                     E (Thermal)             CV                S
                      KCal/Mol        Cal/Mol-Kelvin    Cal/Mol-Kelvin
 Total                  124.533             48.966            124.963
 Electronic               0.000              0.000              0.000
 Translational            0.889              2.981             42.068
 Rotational               0.889              2.981             32.733
 Vibrational            122.755             43.005             50.162
 Vibration     1          0.593              1.986              7.183
 Vibration     2          0.593              1.985              6.150
 Vibration     3          0.594              1.981              5.272
 Vibration     4          0.596              1.975              4.553
 Vibration     5          0.601              1.960              3.778
 Vibration     6          0.607              1.938              3.198
 Vibration     7          0.612              1.923              2.944
 Vibration     8          0.625              1.882              2.458
 Vibration     9          0.644              1.821              2.018
 Vibration    10          0.668              1.746              1.662
 Vibration    11          0.687              1.690              1.466
 Vibration    12          0.715              1.610              1.246
 Vibration    13          0.735              1.554              1.120
 Vibration    14          0.765              1.474              0.969
 Vibration    15          0.805              1.370              0.809
 Vibration    16          0.859              1.241              0.648
 Vibration    17          0.900              1.151              0.555
 Vibration    18          0.953              1.042              0.458

 Optimization completed.
    -- Stationary point found.
 Normal termination of Gaussian 16 at Mon May 22 12:44:28 2023.
