 Gaussian 16, Revision A.03,
 Gaussian 16:  ES64L-G16RevA.03 25-Dec-2016

 -----------------------------
 # opt freq b3lyp/6-31g(2df,p)
 -----------------------------

 -------------------
 Title Card Required
 -------------------
 Symbolic Z-matrix:
 Charge =  0 Multiplicity = 1

 SCF Done:  E(RB3LYP) =  -666.928997661     A.U. after   16 cycles
 SCF Done:  E(RB3LYP) =  -666.936366899     A.U. after   12 cycles
 SCF Done:  E(RB3LYP) =  -666.936494781     A.U. after   12 cycles
 SCF Done:  E(RB3LYP) =  -666.937120021     A.U. after   13 cycles
 SCF Done:  E(RB3LYP) =  -666.937854322     A.U. after   11 cycles
 SCF Done:  E(RB3LYP) =  -666.938150146     A.U. after   12 cycles
 SCF Done:  E(RB3LYP) =  -666.938295450     A.U. after   12 cycles
 SCF Done:  E(RB3LYP) =  -666.938354204     A.U. after   10 cycles
 SCF Done:  E(RB3LYP) =  -666.938394557     A.U. after   10 cycles
 SCF Done:  E(RB3LYP) =  -666.938424859     A.U. after   10 cycles
 SCF Done:  E(RB3LYP) =  -666.938426587     A.U. after    8 cycles
 SCF Done:  E(RB3LYP) =  -666.938427140     A.U. after    8 cycles
 Optimization completed.
    -- Stationary point found.
 Normal termination of Gaussian 16 at Mon May 29 14:03:22 2023.

 ----------------------------------------------------------------------
 #N Geom=AllCheck Guess=TCheck SCRF=Check GenChk RB3LYP/6-31G(2df,p) Fr
 eq
 ----------------------------------------------------------------------

 Structure from the checkpoint file:  "OdCqOrn1cccqdOrc2c1CCdCC2.chk"
 -------------------
 Title Card Required
 -------------------
 Charge =  0 Multiplicity = 1

                         Standard orientation:
 ---------------------------------------------------------------------
 Center     Atomic      Atomic             Coordinates (Angstroms)
 Number     Number       Type             X           Y           Z
 ---------------------------------------------------------------------
      1          8           0       -3.386715    0.385976   -0.597980
      2          6           0       -2.497311   -0.165974   -0.019947
      3          8           0       -2.711724   -1.277921    0.696486
      4          7           0       -1.159570    0.356236   -0.006364
      5          6           0       -1.097542    1.739925   -0.125725
      6          6           0        0.058580    2.422468   -0.070570
      7          6           0        1.329724    1.737022    0.090158
      8          8           0        2.410403    2.311750    0.178795
      9          6           0        1.229866    0.264533    0.101910
     10          6           0        0.038335   -0.385942    0.062936
     11          6           0       -0.035370   -1.900645   -0.008956
     12          6           0        1.286800   -2.547141   -0.324468
     13          6           0        2.447090   -1.906872   -0.253688
     14          6           0        2.550074   -0.459119    0.103320
     15          1           0       -1.942898   -1.511659    1.229168
     16          1           0       -2.064458    2.205860   -0.247905
     17          1           0        0.058115    3.502895   -0.142836
     18          1           0       -0.788187   -2.206477   -0.745508
     19          1           0       -0.377440   -2.332542    0.949379
     20          1           0        1.242398   -3.600115   -0.585579
     21          1           0        3.373303   -2.433615   -0.465471
     22          1           0        3.225392    0.070673   -0.579660
     23          1           0        3.033572   -0.336645    1.084737
 ---------------------------------------------------------------------

 SCF Done:  E(RB3LYP) =  -666.938427140     A.U. after    1 cycles

 The electronic state is 1-A.
 Alpha  occ. eigenvalues --  -19.22030 -19.15114 -19.10045 -14.42314 -10.36832
 Alpha  occ. eigenvalues --  -10.26473 -10.25309 -10.24814 -10.23256 -10.20572
 Alpha  occ. eigenvalues --  -10.20195 -10.19918 -10.19822 -10.19360  -1.14504
 Alpha  occ. eigenvalues --   -1.05699  -1.01372  -0.99655  -0.86070  -0.80705
 Alpha  occ. eigenvalues --   -0.77821  -0.76682  -0.67663  -0.67342  -0.64277
 Alpha  occ. eigenvalues --   -0.63536  -0.59226  -0.54378  -0.52894  -0.50664
 Alpha  occ. eigenvalues --   -0.48508  -0.47970  -0.46870  -0.46689  -0.44620
 Alpha  occ. eigenvalues --   -0.43755  -0.43303  -0.42615  -0.41178  -0.40516
 Alpha  occ. eigenvalues --   -0.39843  -0.37087  -0.36644  -0.34846  -0.34326
 Alpha  occ. eigenvalues --   -0.31504  -0.28700  -0.26046  -0.23767  -0.23531
 Alpha virt. eigenvalues --   -0.05015  -0.01846   0.00327   0.01403   0.04858
 Alpha virt. eigenvalues --    0.08973   0.10255   0.12027   0.12390   0.13661
 Alpha virt. eigenvalues --    0.14265   0.15653   0.16168   0.17291   0.18868

 Mulliken charges:
               1
     1  O   -0.327181
     2  C    0.481501
     3  O   -0.364787
     4  N   -0.296313
     5  C    0.050108
     6  C   -0.291965
     7  C    0.341993
     8  O   -0.378593
     9  C    0.036873
    10  C    0.260698
    11  C   -0.402164
    12  C   -0.076728
    13  C   -0.049927
    14  C   -0.347087
    15  H    0.309166
    16  H    0.171967
    17  H    0.123733
    18  H    0.150461
    19  H    0.122351
    20  H    0.101083
    21  H    0.101618
    22  H    0.145491
    23  H    0.137703
 Sum of Mulliken charges =  -0.00000

 Dipole moment (field-independent basis, Debye):
    X=             -0.2509    Y=             -3.5263    Z=              1.1767  Tot=              3.7259
 Quadrupole moment (field-independent basis, Debye-Ang):
   XX=            -95.7522   YY=            -77.4436   ZZ=            -78.1167
   XY=             -9.5726   XZ=             -4.2989   YZ=             -1.3257

  Exact polarizability: 158.379  11.024 131.566   4.212  -1.334  63.539
 Approx polarizability: 283.370  49.916 201.920  13.784  -4.485 109.039

                      1                      2                      3
                      A                      A                      A
 Frequencies --     50.5801                67.5402               105.6491
 Red. masses --      5.5064                 5.6485                 3.4714
 Frc consts  --      0.0083                 0.0152                 0.0228
 IR Inten    --      2.0023                11.7300                 5.4446

                      4                      5                      6
                      A                      A                      A
 Frequencies --    123.5667               213.2064               227.0347
 Red. masses --      3.0129                 3.6882                 7.0466
 Frc consts  --      0.0271                 0.0988                 0.2140
 IR Inten    --      0.8414                 0.8867                 2.9288

                      7                      8                      9
                      A                      A                      A
 Frequencies --    277.1881               297.0079               349.6510
 Red. masses --      3.9539                 7.0076                 7.3729
 Frc consts  --      0.1790                 0.3642                 0.5311
 IR Inten    --      5.0332                14.4725                 4.6033

                     10                     11                     12
                      A                      A                      A
 Frequencies --    402.0056               411.3248               461.4408
 Red. masses --      2.8201                 3.4526                 1.5706
 Frc consts  --      0.2685                 0.3442                 0.1970
 IR Inten    --      3.0317                 2.3053                84.0078

                     13                     14                     15
                      A                      A                      A
 Frequencies --    471.0585               476.9756               530.8615
 Red. masses --      2.4586                 5.1225                 4.3845
 Frc consts  --      0.3214                 0.6866                 0.7280
 IR Inten    --     46.0900                 1.9646                16.0168

                     16                     17                     18
                      A                      A                      A
 Frequencies --    554.3772               580.8996               618.6891
 Red. masses --      4.1260                 4.5665                 6.1073
 Frc consts  --      0.7471                 0.9079                 1.3774
 IR Inten    --      5.5928                 9.2655                 6.3987

                     19                     20                     21
                      A                      A                      A
 Frequencies --    688.1002               703.2819               753.2114
 Red. masses --      1.9319                 2.1155                 3.3470
 Frc consts  --      0.5389                 0.6165                 1.1188
 IR Inten    --     20.7478                15.1050                 5.0213

                     22                     23                     24
                      A                      A                      A
 Frequencies --    762.2964               772.8048               777.0208
 Red. masses --      7.1327                 7.4752                 4.5758
 Frc consts  --      2.4420                 2.6304                 1.6277
 IR Inten    --     11.8519                14.3614                 1.7326

                     25                     26                     27
                      A                      A                      A
 Frequencies --    857.1103               924.0455               960.0265
 Red. masses --      1.8413                 3.8740                 1.9891
 Frc consts  --      0.7970                 1.9489                 1.0801
 IR Inten    --     23.8156                 3.1571                 6.3370

                     28                     29                     30
                      A                      A                      A
 Frequencies --    976.5908               982.1663               987.5264
 Red. masses --      2.0742                 1.6440                 1.9005
 Frc consts  --      1.1655                 0.9344                 1.0920
 IR Inten    --      2.8402                 1.5128                 0.0799

                     31                     32                     33
                      A                      A                      A
 Frequencies --   1006.5910              1020.3346              1050.4397
 Red. masses --      1.5557                 2.0511                 3.3430
 Frc consts  --      0.9287                 1.2581                 2.1733
 IR Inten    --      0.6969                 0.4855                20.9984

                     34                     35                     36
                      A                      A                      A
 Frequencies --   1121.0437              1170.4463              1177.0191
 Red. masses --      2.2648                 2.6740                 2.4036
 Frc consts  --      1.6769                 2.1584                 1.9619
 IR Inten    --      4.1951               158.8574                27.4190

                     37                     38                     39
                      A                      A                      A
 Frequencies --   1197.7957              1203.8693              1231.6514
 Red. masses --      1.0908                 1.1011                 1.8528
 Frc consts  --      0.9220                 0.9402                 1.6559
 IR Inten    --      3.8683                 4.1315                40.4440

                     40                     41                     42
                      A                      A                      A
 Frequencies --   1259.0474              1273.1291              1320.2709
 Red. masses --      1.1146                 2.4705                 2.7098
 Frc consts  --      1.0410                 2.3593                 2.7830
 IR Inten    --      0.6427                17.5368               648.7823

                     43                     44                     45
                      A                      A                      A
 Frequencies --   1359.1068              1372.3599              1406.9780
 Red. masses --      2.0015                 1.8516                 1.5449
 Frc consts  --      2.1783                 2.0547                 1.8018
 IR Inten    --     45.0968                15.3624                 9.9775

                     46                     47                     48
                      A                      A                      A
 Frequencies --   1417.2819              1449.9431              1457.5901
 Red. masses --      1.9654                 2.9767                 1.1422
 Frc consts  --      2.3261                 3.6871                 1.4298
 IR Inten    --     10.8757                70.7039                 0.5780

                     49                     50                     51
                      A                      A                      A
 Frequencies --   1465.2783              1625.8934              1682.9910
 Red. masses --      1.1584                 7.2366                 6.9817
 Frc consts  --      1.4653                11.2711                11.6513
 IR Inten    --     13.9479                14.5568                43.1675

                     52                     53                     54
                      A                      A                      A
 Frequencies --   1723.7628              1752.9639              1875.9997
 Red. masses --     10.5467                 6.7703                10.5611
 Frc consts  --     18.4638                12.2575                21.8990
 IR Inten    --    340.4669                40.0422               416.9721

                     55                     56                     57
                      A                      A                      A
 Frequencies --   2921.0298              2997.6738              3043.7339
 Red. masses --      1.0739                 1.0745                 1.0836
 Frc consts  --      5.3989                 5.6891                 5.9149
 IR Inten    --     69.8308                12.3783                10.2133

                     58                     59                     60
                      A                      A                      A
 Frequencies --   3048.3725              3160.9803              3183.4267
 Red. masses --      1.0832                 1.0837                 1.0981
 Frc consts  --      5.9308                 6.3796                 6.5568
 IR Inten    --      4.7150                 4.4778                27.2075

                     61                     62                     63
                      A                      A                      A
 Frequencies --   3214.0861              3248.9834              3801.9105
 Red. masses --      1.0899                 1.0948                 1.0653
 Frc consts  --      6.6335                 6.8091                 9.0727
 IR Inten    --      1.3241                 2.9989                70.7773

 - Thermochemistry -
 -------------------
 Temperature   298.150 Kelvin.  Pressure   1.00000 Atm.
 Atom     1 has atomic number  8 and mass  15.99491

 Molecular mass:   191.05824 amu.
 Principal axes and moments of inertia in atomic units:
                           1         2         3
     Eigenvalues --  1782.702692768.338434395.12482
           X            0.99899  -0.04473  -0.00339
           Y            0.04472   0.99900  -0.00135
           Z            0.00345   0.00119   0.99999
 This molecule is an asymmetric top.
 Rotational symmetry number  1.
 Warning -- assumption of classical behavior for rotation
           may cause significant error
 Rotational temperatures (Kelvin)      0.04859     0.03129     0.01971
 Rotational constants (GHZ):           1.01236     0.65192     0.41062
 Zero-point vibrational energy     464182.3 (Joules/Mol)
                                  110.94224 (Kcal/Mol)
 Warning -- explicit consideration of  18 degrees of freedom as
           vibrations may cause significant error
 Vibrational temperatures:     72.77    97.18   152.01   177.78   306.76
          (Kelvin)            326.65   398.81   427.33   503.07   578.40
                              591.80   663.91   677.75   686.26   763.79
                              797.63   835.78   890.16   990.02  1011.87
                             1083.70  1096.77  1111.89  1117.96  1233.19
                             1329.50  1381.26  1405.10  1413.12  1420.83
                             1448.26  1468.03  1511.35  1612.93  1684.01
                             1693.47  1723.36  1732.10  1772.07  1811.49
                             1831.75  1899.58  1955.45  1974.52  2024.33
                             2039.15  2086.14  2097.15  2108.21  2339.30
                             2421.45  2480.11  2522.12  2699.15  4202.71
                             4312.98  4379.25  4385.93  4547.95  4580.24
                             4624.35  4674.56  5470.10

 Zero-point correction=                           0.176798 (Hartree/Particle)
 Thermal correction to Energy=                    0.188191
 Thermal correction to Enthalpy=                  0.189135
 Thermal correction to Gibbs Free Energy=         0.138906
 Sum of electronic and zero-point Energies=           -666.761629
 Sum of electronic and thermal Energies=              -666.750236
 Sum of electronic and thermal Enthalpies=            -666.749292
 Sum of electronic and thermal Free Energies=         -666.799522

                     E (Thermal)             CV                S
                      KCal/Mol        Cal/Mol-Kelvin    Cal/Mol-Kelvin
 Total                  118.092             44.459            105.718
 Electronic               0.000              0.000              0.000
 Translational            0.889              2.981             41.648
 Rotational               0.889              2.981             31.451
 Vibrational            116.314             38.497             32.619
 Vibration     1          0.595              1.977              4.795
 Vibration     2          0.598              1.970              4.224
 Vibration     3          0.605              1.945              3.347
 Vibration     4          0.610              1.929              3.044
 Vibration     5          0.644              1.821              2.016
 Vibration     6          0.651              1.800              1.902
 Vibration     7          0.678              1.716              1.551
 Vibration     8          0.691              1.679              1.434
 Vibration     9          0.727              1.576              1.168
 Vibration    10          0.768              1.466              0.955
 Vibration    11          0.775              1.446              0.922
 Vibration    12          0.819              1.336              0.762
 Vibration    13          0.828              1.314              0.735
 Vibration    14          0.834              1.301              0.718
 Vibration    15          0.886              1.182              0.585
 Vibration    16          0.910              1.130              0.535
 Vibration    17          0.938              1.073              0.484
 Vibration    18          0.979              0.992              0.419

 Optimization completed.
    -- Stationary point found.
 Normal termination of Gaussian 16 at Mon May 29 15:23:28 2023.
