 Gaussian 16, Revision A.03,
 Gaussian 16:  ES64L-G16RevA.03 25-Dec-2016

 -----------------------------
 # opt freq b3lyp/6-31g(2df,p)
 -----------------------------

 -------------------
 Title Card Required
 -------------------
 Symbolic Z-matrix:
 Charge =  0 Multiplicity = 1

 SCF Done:  E(RB3LYP) =  -861.625671762     A.U. after   19 cycles
 SCF Done:  E(RB3LYP) =  -861.721416556     A.U. after   15 cycles
 SCF Done:  E(RB3LYP) =  -861.805109120     A.U. after   15 cycles
 SCF Done:  E(RB3LYP) =  -861.909797614     A.U. after   14 cycles
 SCF Done:  E(RB3LYP) =  -861.980180561     A.U. after   13 cycles
 SCF Done:  E(RB3LYP) =  -862.011865990     A.U. after   12 cycles
 SCF Done:  E(RB3LYP) =  -862.040058577     A.U. after   13 cycles
 SCF Done:  E(RB3LYP) =  -862.057787246     A.U. after   12 cycles
 SCF Done:  E(RB3LYP) =  -862.069194208     A.U. after   12 cycles
 SCF Done:  E(RB3LYP) =  -862.073827687     A.U. after   11 cycles
 SCF Done:  E(RB3LYP) =  -862.076666401     A.U. after   11 cycles
 SCF Done:  E(RB3LYP) =  -862.077096606     A.U. after   10 cycles
 SCF Done:  E(RB3LYP) =  -862.077258482     A.U. after   10 cycles
 SCF Done:  E(RB3LYP) =  -862.077306681     A.U. after    9 cycles
 SCF Done:  E(RB3LYP) =  -862.077330058     A.U. after    9 cycles
 SCF Done:  E(RB3LYP) =  -862.077337536     A.U. after    8 cycles
 SCF Done:  E(RB3LYP) =  -862.077339104     A.U. after    7 cycles
 SCF Done:  E(RB3LYP) =  -862.077340130     A.U. after    7 cycles
 SCF Done:  E(RB3LYP) =  -862.077340559     A.U. after    6 cycles
 Optimization completed.
    -- Stationary point found.
 Normal termination of Gaussian 16 at Tue May 23 09:05:43 2023.

 ----------------------------------------------------------------------
 #N Geom=AllCheck Guess=TCheck SCRF=Check GenChk RB3LYP/6-31G(2df,p) Fr
 eq
 ----------------------------------------------------------------------

 Structure from the checkpoint file:  "OOC1CCCCCCCC12NCCCNON2.chk"
 -------------------
 Title Card Required
 -------------------
 Charge =  0 Multiplicity = 1

                         Standard orientation:
 ---------------------------------------------------------------------
 Center     Atomic      Atomic             Coordinates (Angstroms)
 Number     Number       Type             X           Y           Z
 ---------------------------------------------------------------------
      1          8           0       -1.520479   -3.224073    0.004393
      2          8           0       -1.223522   -1.911392    0.531275
      3          6           0       -0.444910   -1.207757   -0.455559
      4          6           0       -1.261271   -0.791404   -1.698827
      5          6           0       -2.209689    0.419094   -1.707503
      6          6           0       -3.387688    0.380730   -0.703988
      7          6           0       -3.476601    1.624347    0.199213
      8          6           0       -2.189738    1.930336    0.987026
      9          6           0       -1.705749    0.746734    1.856566
     10          6           0       -0.236388    0.305045    1.718211
     11          6           0        0.390059   -0.146515    0.356307
     12          7           0        0.689776    1.029577   -0.439765
     13          6           0        1.661151    0.946642   -1.535187
     14          6           0        3.149570    1.186955   -1.194111
     15          6           0        3.926198   -0.005511   -0.606465
     16          7           0        3.862953   -0.240966    0.841667
     17          8           0        2.514164   -0.017542    1.348367
     18          7           0        1.655903   -0.894736    0.641725
     19          1           0       -2.476440   -3.155604   -0.128834
     20          1           0        0.288842   -1.933224   -0.825008
     21          1           0       -1.817045   -1.697120   -1.975947
     22          1           0       -0.538348   -0.649715   -2.510272
     23          1           0       -2.606475    0.492835   -2.727079
     24          1           0       -1.613253    1.319715   -1.555236
     25          1           0       -3.308852   -0.513974   -0.079151
     26          1           0       -4.336169    0.277912   -1.243722
     27          1           0       -4.312071    1.491702    0.899754
     28          1           0       -3.729904    2.499015   -0.414559
     29          1           0       -2.369264    2.809127    1.616971
     30          1           0       -1.402307    2.220479    0.287379
     31          1           0       -2.338702   -0.125456    1.686005
     32          1           0       -1.842735    0.995676    2.915720
     33          1           0       -0.100361   -0.533014    2.408047
     34          1           0        0.422210    1.098908    2.090651
     35          1           0        0.956867    1.781567    0.182337
     36          1           0        1.368957    1.698377   -2.280445
     37          1           0        1.563765   -0.026034   -2.025603
     38          1           0        3.241447    2.063180   -0.537353
     39          1           0        3.645697    1.462694   -2.134273
     40          1           0        4.998628    0.110602   -0.807065
     41          1           0        3.609019   -0.923913   -1.109145
     42          1           0        4.334145    0.533085    1.310270
     43          1           0        1.450952   -1.662063    1.284790
 ---------------------------------------------------------------------

 SCF Done:  E(RB3LYP) =  -862.077340559     A.U. after    1 cycles

 The electronic state is 1-A.
 Alpha  occ. eigenvalues --  -19.19331 -19.19163 -19.17980 -14.35740 -14.35644
 Alpha  occ. eigenvalues --  -14.31349 -10.24894 -10.23198 -10.20651 -10.20268
 Alpha  occ. eigenvalues --  -10.18281 -10.17795 -10.17614 -10.16970 -10.16856
 Alpha  occ. eigenvalues --  -10.16781 -10.16725 -10.16463  -1.11475  -1.08068
 Alpha  occ. eigenvalues --   -0.93066  -0.90226  -0.87610  -0.80112  -0.78443
 Alpha  occ. eigenvalues --   -0.77188  -0.76094  -0.72584  -0.69227  -0.66169
 Alpha  occ. eigenvalues --   -0.65136  -0.60744  -0.60205  -0.58146  -0.55392
 Alpha  occ. eigenvalues --   -0.54197  -0.53309  -0.50419  -0.49669  -0.48252
 Alpha  occ. eigenvalues --   -0.47126  -0.46722  -0.45554  -0.45034  -0.43761
 Alpha  occ. eigenvalues --   -0.42916  -0.42059  -0.41864  -0.41635  -0.39847
 Alpha  occ. eigenvalues --   -0.39699  -0.39498  -0.37839  -0.36649  -0.36368
 Alpha  occ. eigenvalues --   -0.35910  -0.35409  -0.34963  -0.34075  -0.33524
 Alpha  occ. eigenvalues --   -0.33071  -0.31422  -0.31156  -0.30626  -0.30087
 Alpha  occ. eigenvalues --   -0.29703  -0.28882  -0.25741  -0.23437  -0.22448
 Alpha  occ. eigenvalues --   -0.21111
 Alpha virt. eigenvalues --    0.02808   0.06583   0.07634   0.08794   0.09413
 Alpha virt. eigenvalues --    0.09792   0.10209   0.11110   0.12089   0.12508
 Alpha virt. eigenvalues --    0.12848   0.13637   0.14239   0.14661   0.15099

 Mulliken charges:
               1
     1  O   -0.323838
     2  O   -0.211571
     3  C    0.144807
     4  C   -0.245106
     5  C   -0.188177
     6  C   -0.192852
     7  C   -0.190786
     8  C   -0.193329
     9  C   -0.209899
    10  C   -0.229768
    11  C    0.195448
    12  N   -0.285305
    13  C   -0.150322
    14  C   -0.202250
    15  C   -0.131960
    16  N   -0.188578
    17  O   -0.285673
    18  N   -0.191119
    19  H    0.311997
    20  H    0.100702
    21  H    0.090571
    22  H    0.101171
    23  H    0.084303
    24  H    0.122759
    25  H    0.097330
    26  H    0.084861
    27  H    0.085910
    28  H    0.086854
    29  H    0.083058
    30  H    0.111070
    31  H    0.117186
    32  H    0.088892
    33  H    0.106609
    34  H    0.102365
    35  H    0.219020
    36  H    0.094722
    37  H    0.116285
    38  H    0.087770
    39  H    0.096271
    40  H    0.100240
    41  H    0.120964
    42  H    0.229956
    43  H    0.239411
 Sum of Mulliken charges =  -0.00000

 Dipole moment (field-independent basis, Debye):
    X=             -0.2025    Y=              1.4728    Z=             -1.2592  Tot=              1.9482
 Quadrupole moment (field-independent basis, Debye-Ang):
   XX=           -104.0016   YY=           -111.4178   ZZ=           -109.5210
   XY=              9.8550   XZ=             -1.9842   YZ=              2.8199

  Exact polarizability: 189.768   3.982 149.209  -1.676   1.207 148.883
 Approx polarizability: 239.549  11.027 232.758  -1.914   3.311 225.217

                      1                      2                      3
                      A                      A                      A
 Frequencies --     66.7899                74.7005                91.1464
 Red. masses --      4.9964                 3.8252                 3.5239
 Frc consts  --      0.0131                 0.0126                 0.0172
 IR Inten    --      0.8733                 0.8612                 0.1801

                      4                      5                      6
                      A                      A                      A
 Frequencies --     94.4983               129.3184               137.3087
 Red. masses --      4.0104                 3.0262                 3.5972
 Frc consts  --      0.0211                 0.0298                 0.0400
 IR Inten    --      0.1197                 0.0363                 3.3112

                      7                      8                      9
                      A                      A                      A
 Frequencies --    156.3948               170.2352               194.6385
 Red. masses --      3.2782                 3.1441                 4.5772
 Frc consts  --      0.0472                 0.0537                 0.1022
 IR Inten    --      7.5787                 5.1045                 2.0993

                     10                     11                     12
                      A                      A                      A
 Frequencies --    220.1882               227.3886               243.0745
 Red. masses --      2.7604                 1.6513                 1.9295
 Frc consts  --      0.0789                 0.0503                 0.0672
 IR Inten    --     15.5968                45.0070                22.8182

                     13                     14                     15
                      A                      A                      A
 Frequencies --    253.8278               274.9111               282.7206
 Red. masses --      2.5376                 2.3552                 3.7167
 Frc consts  --      0.0963                 0.1049                 0.1750
 IR Inten    --     14.6184                 6.1895                 3.2941

                     16                     17                     18
                      A                      A                      A
 Frequencies --    293.6944               322.6125               343.7367
 Red. masses --      2.6337                 2.3039                 2.1309
 Frc consts  --      0.1338                 0.1413                 0.1483
 IR Inten    --      5.8144                 2.4123                 0.7720

                     19                     20                     21
                      A                      A                      A
 Frequencies --    345.8469               362.3295               368.8519
 Red. masses --      2.6555                 3.2171                 2.5918
 Frc consts  --      0.1871                 0.2488                 0.2078
 IR Inten    --      1.4034                 2.9945                 1.4351

                     22                     23                     24
                      A                      A                      A
 Frequencies --    381.0037               411.1762               456.3312
 Red. masses --      2.7571                 2.7521                 2.1770
 Frc consts  --      0.2358                 0.2741                 0.2671
 IR Inten    --      2.2534                 2.6637                13.9696

                     25                     26                     27
                      A                      A                      A
 Frequencies --    474.1438               521.1182               528.8802
 Red. masses --      1.9468                 2.4044                 2.9451
 Frc consts  --      0.2579                 0.3847                 0.4854
 IR Inten    --      3.5875                 2.4212                 1.1900

                     28                     29                     30
                      A                      A                      A
 Frequencies --    560.5024               570.8848               668.4807
 Red. masses --      2.5730                 2.9792                 2.0221
 Frc consts  --      0.4763                 0.5721                 0.5324
 IR Inten    --      1.1576                 6.1710                78.7568

                     31                     32                     33
                      A                      A                      A
 Frequencies --    708.2566               715.1990               753.0451
 Red. masses --      3.2694                 1.4606                 2.2507
 Frc consts  --      0.9663                 0.4402                 0.7520
 IR Inten    --     11.2026                 7.6222                11.5982

                     34                     35                     36
                      A                      A                      A
 Frequencies --    761.3039               777.3336               787.5620
 Red. masses --      2.8478                 2.3865                 2.0327
 Frc consts  --      0.9725                 0.8496                 0.7428
 IR Inten    --      1.4051                12.9804                 0.9420

                     37                     38                     39
                      A                      A                      A
 Frequencies --    826.1609               850.5239               860.8222
 Red. masses --      2.2695                 1.7642                 2.4388
 Frc consts  --      0.9127                 0.7519                 1.0648
 IR Inten    --     16.5582                13.9977                10.3837

                     40                     41                     42
                      A                      A                      A
 Frequencies --    877.5021               887.8700               927.5573
 Red. masses --      2.8871                 2.7286                 2.3067
 Frc consts  --      1.3098                 1.2673                 1.1693
 IR Inten    --     39.5536                 2.9790                12.1409

                     43                     44                     45
                      A                      A                      A
 Frequencies --    944.7494               948.2606               954.5345
 Red. masses --      2.6915                 3.3004                 2.4836
 Frc consts  --      1.4154                 1.7485                 1.3333
 IR Inten    --      9.4341                 9.3488                13.2487

                     46                     47                     48
                      A                      A                      A
 Frequencies --    965.1614               974.9910               989.9208
 Red. masses --      2.7524                 2.6722                 2.4705
 Frc consts  --      1.5107                 1.4967                 1.4264
 IR Inten    --      6.0172                 9.4746                25.3117

                     49                     50                     51
                      A                      A                      A
 Frequencies --   1001.0742              1020.3676              1032.6466
 Red. masses --      2.1550                 2.2688                 2.5687
 Frc consts  --      1.2724                 1.3918                 1.6139
 IR Inten    --     18.4737                10.0973                22.8720

                     52                     53                     54
                      A                      A                      A
 Frequencies --   1053.9030              1060.3010              1074.3760
 Red. masses --      2.3167                 2.2777                 2.3564
 Frc consts  --      1.5160                 1.5087                 1.6026
 IR Inten    --      9.5150                10.8666                 3.6046

                     55                     56                     57
                      A                      A                      A
 Frequencies --   1078.5081              1095.1724              1100.4747
 Red. masses --      2.7537                 2.2819                 2.3659
 Frc consts  --      1.8872                 1.6126                 1.6881
 IR Inten    --     17.2433                18.3797                 7.2068

                     58                     59                     60
                      A                      A                      A
 Frequencies --   1118.8927              1128.5258              1141.1313
 Red. masses --      2.2144                 2.4688                 2.4508
 Frc consts  --      1.6334                 1.8525                 1.8803
 IR Inten    --      2.5756                 2.4244                22.4810

                     61                     62                     63
                      A                      A                      A
 Frequencies --   1177.9406              1191.4464              1200.1712
 Red. masses --      1.5802                 1.3627                 2.0369
 Frc consts  --      1.2918                 1.1397                 1.7286
 IR Inten    --     19.2712                 6.7066                 5.8648

                     64                     65                     66
                      A                      A                      A
 Frequencies --   1217.5253              1246.4658              1255.1610
 Red. masses --      1.3949                 1.3567                 1.3073
 Frc consts  --      1.2182                 1.2420                 1.2135
 IR Inten    --      4.3383                 6.2557                 4.0748

                     67                     68                     69
                      A                      A                      A
 Frequencies --   1276.9686              1302.0456              1306.7550
 Red. masses --      1.3581                 1.2371                 1.2096
 Frc consts  --      1.3048                 1.2357                 1.2170
 IR Inten    --      4.7378                 4.7772                 0.5296

                     70                     71                     72
                      A                      A                      A
 Frequencies --   1317.2540              1326.5515              1333.7396
 Red. masses --      1.2176                 1.1986                 1.2637
 Frc consts  --      1.2448                 1.2428                 1.3245
 IR Inten    --      0.6217                 0.5890                 7.6923

                     73                     74                     75
                      A                      A                      A
 Frequencies --   1341.5674              1352.5098              1370.9266
 Red. masses --      1.3093                 1.2771                 1.3194
 Frc consts  --      1.3884                 1.3764                 1.4610
 IR Inten    --      3.6938                10.7418                 5.8172

                     76                     77                     78
                      A                      A                      A
 Frequencies --   1374.6727              1375.0369              1378.7620
 Red. masses --      1.3497                 1.2136                 1.2926
 Frc consts  --      1.5027                 1.3519                 1.4478
 IR Inten    --      3.9524                27.3496                24.6364

                     79                     80                     81
                      A                      A                      A
 Frequencies --   1385.2730              1392.1270              1395.1095
 Red. masses --      1.2421                 1.3544                 1.2566
 Frc consts  --      1.4044                 1.5465                 1.4410
 IR Inten    --      2.7478                 1.1719                15.3693

                     82                     83                     84
                      A                      A                      A
 Frequencies --   1400.7441              1402.6868              1411.7109
 Red. masses --      1.3325                 1.2945                 1.3116
 Frc consts  --      1.5404                 1.5007                 1.5401
 IR Inten    --      6.4490                 5.2541                 0.4962

                     85                     86                     87
                      A                      A                      A
 Frequencies --   1429.6623              1444.6445              1462.3473
 Red. masses --      1.2537                 1.1931                 1.0949
 Frc consts  --      1.5097                 1.4671                 1.3795
 IR Inten    --      7.6172                13.7232                 5.6764

                     88                     89                     90
                      A                      A                      A
 Frequencies --   1467.9771              1472.4859              1477.4024
 Red. masses --      1.0858                 1.0914                 1.0829
 Frc consts  --      1.3786                 1.3943                 1.3927
 IR Inten    --      2.2907                 6.9012                 8.4078

                     91                     92                     93
                      A                      A                      A
 Frequencies --   1481.8493              1484.5494              1488.6879
 Red. masses --      1.1063                 1.0856                 1.0761
 Frc consts  --      1.4313                 1.4097                 1.4051
 IR Inten    --      1.6708                 0.4269                 6.6518

                     94                     95                     96
                      A                      A                      A
 Frequencies --   1490.7062              1493.1758              1514.6023
 Red. masses --      1.1032                 1.1008                 1.0714
 Frc consts  --      1.4444                 1.4461                 1.4481
 IR Inten    --      8.9723                 0.7363                 5.1552

                     97                     98                     99
                      A                      A                      A
 Frequencies --   1521.4746              1528.7975              3001.9450
 Red. masses --      1.0877                 1.2014                 1.0649
 Frc consts  --      1.4835                 1.6544                 5.6543
 IR Inten    --      8.2675                12.7470                12.2004

                    100                    101                    102
                      A                      A                      A
 Frequencies --   3006.8891              3015.3936              3018.2927
 Red. masses --      1.0606                 1.0664                 1.0683
 Frc consts  --      5.6499                 5.7128                 5.7341
 IR Inten    --     32.9383                53.7163                 8.6021

                    103                    104                    105
                      A                      A                      A
 Frequencies --   3024.5727              3027.4045              3033.7954
 Red. masses --      1.0727                 1.0726                 1.0723
 Frc consts  --      5.7817                 5.7922                 5.8146
 IR Inten    --     19.5520                10.5997                 0.1616

                    106                    107                    108
                      A                      A                      A
 Frequencies --   3034.0455              3035.4226              3037.6639
 Red. masses --      1.0725                 1.0757                 1.0832
 Frc consts  --      5.8170                 5.8395                 5.8888
 IR Inten    --     16.0860                36.8005                63.4010

                    109                    110                    111
                      A                      A                      A
 Frequencies --   3044.0169              3046.9870              3049.3469
 Red. masses --      1.0830                 1.0690                 1.0922
 Frc consts  --      5.9124                 5.8475                 5.9835
 IR Inten    --     61.8996                48.8586                56.6270

                    112                    113                    114
                      A                      A                      A
 Frequencies --   3060.6558              3078.3559              3080.4034
 Red. masses --      1.0940                 1.0961                 1.0969
 Frc consts  --      6.0379                 6.1200                 6.1325
 IR Inten    --     24.2630                53.6709                 6.2998

                    115                    116                    117
                      A                      A                      A
 Frequencies --   3085.4303              3092.3282              3095.6737
 Red. masses --      1.0977                 1.0927                 1.0942
 Frc consts  --      6.1572                 6.1562                 6.1783
 IR Inten    --      8.2020                34.5573                22.1839

                    118                    119                    120
                      A                      A                      A
 Frequencies --   3114.3107              3117.2697              3425.0061
 Red. masses --      1.0884                 1.0884                 1.0752
 Frc consts  --      6.2195                 6.2315                 7.4312
 IR Inten    --     22.8362                22.7297                 1.4013

                    121                    122                    123
                      A                      A                      A
 Frequencies --   3461.1833              3555.6250              3756.8698
 Red. masses --      1.0746                 1.0737                 1.0687
 Frc consts  --      7.5847                 7.9976                 8.8870
 IR Inten    --      0.4092                 0.9103                31.3525

 - Thermochemistry -
 -------------------
 Temperature   298.150 Kelvin.  Pressure   1.00000 Atm.
 Atom     1 has atomic number  8 and mass  15.99491

 Molecular mass:   259.18959 amu.
 Principal axes and moments of inertia in atomic units:
                           1         2         3
     Eigenvalues --  2819.915946198.665756608.74018
           X            0.99993  -0.00574  -0.01041
           Y            0.00610   0.99935   0.03544
           Z            0.01020  -0.03550   0.99932
 This molecule is an asymmetric top.
 Rotational symmetry number  1.
 Warning -- assumption of classical behavior for rotation
           may cause significant error
 Rotational temperatures (Kelvin)      0.03072     0.01397     0.01311
 Rotational constants (GHZ):           0.64000     0.29115     0.27308
 Zero-point vibrational energy    1007454.6 (Joules/Mol)
                                  240.78744 (Kcal/Mol)
 Warning -- explicit consideration of  29 degrees of freedom as
           vibrations may cause significant error
 Vibrational temperatures:     96.10   107.48   131.14   135.96   186.06
          (Kelvin)            197.56   225.02   244.93   280.04   316.80
                              327.16   349.73   365.20   395.54   406.77
                              422.56   464.17   494.56   497.60   521.31
                              530.70   548.18   591.59   656.56   682.19
                              749.77   760.94   806.44   821.38   961.79
                             1019.02  1029.01  1083.46  1095.35  1118.41
                             1133.13  1188.66  1223.71  1238.53  1262.53
                             1277.45  1334.55  1359.28  1364.34  1373.36
                             1388.65  1402.79  1424.28  1440.32  1468.08
                             1485.75  1516.33  1525.54  1545.79  1551.73
                             1575.71  1583.34  1609.84  1623.70  1641.83
                             1694.79  1714.23  1726.78  1751.75  1793.39
                             1805.90  1837.27  1873.35  1880.13  1895.23
                             1908.61  1918.95  1930.22  1945.96  1972.46
                             1977.85  1978.37  1983.73  1993.10  2002.96
                             2007.25  2015.36  2018.15  2031.14  2056.97
                             2078.52  2103.99  2112.09  2118.58  2125.65
                             2132.05  2135.94  2141.89  2144.79  2148.35
                             2179.17  2189.06  2199.60  4319.13  4326.24
                             4338.48  4342.65  4351.69  4355.76  4364.95
                             4365.31  4367.30  4370.52  4379.66  4383.93
                             4387.33  4403.60  4429.07  4432.01  4439.25
                             4449.17  4453.98  4480.80  4485.06  4927.82
                             4979.87  5115.75  5405.30

 Zero-point correction=                           0.383719 (Hartree/Particle)
 Thermal correction to Energy=                    0.401831
 Thermal correction to Enthalpy=                  0.402775
 Thermal correction to Gibbs Free Energy=         0.339732
 Sum of electronic and zero-point Energies=           -861.693621
 Sum of electronic and thermal Energies=              -861.675510
 Sum of electronic and thermal Enthalpies=            -861.674566
 Sum of electronic and thermal Free Energies=         -861.737608

                     E (Thermal)             CV                S
                      KCal/Mol        Cal/Mol-Kelvin    Cal/Mol-Kelvin
 Total                  252.153             72.854            132.685
 Electronic               0.000              0.000              0.000
 Translational            0.889              2.981             42.557
 Rotational               0.889              2.981             33.113
 Vibrational            250.375             66.892             57.015
 Vibration     1          0.598              1.970              4.246
 Vibration     2          0.599              1.966              4.026
 Vibration     3          0.602              1.955              3.635
 Vibration     4          0.603              1.953              3.565
 Vibration     5          0.612              1.924              2.956
 Vibration     6          0.614              1.916              2.841
 Vibration     7          0.620              1.896              2.593
 Vibration     8          0.625              1.879              2.433
 Vibration     9          0.635              1.847              2.183
 Vibration    10          0.647              1.810              1.958
 Vibration    11          0.651              1.799              1.899
 Vibration    12          0.659              1.774              1.780
 Vibration    13          0.665              1.756              1.704
 Vibration    14          0.677              1.720              1.565
 Vibration    15          0.682              1.706              1.517
 Vibration    16          0.688              1.685              1.453
 Vibration    17          0.708              1.630              1.297
 Vibration    18          0.722              1.588              1.195
 Vibration    19          0.724              1.584              1.185
 Vibration    20          0.736              1.550              1.112
 Vibration    21          0.741              1.536              1.085
 Vibration    22          0.751              1.511              1.035
 Vibration    23          0.775              1.446              0.922
 Vibration    24          0.815              1.347              0.777
 Vibration    25          0.831              1.307              0.726
 Vibration    26          0.876              1.203              0.607
 Vibration    27          0.884              1.186              0.590
 Vibration    28          0.916              1.117              0.523
 Vibration    29          0.927              1.094              0.503

                           ! Non-Optimized Parameters !
 Normal termination of Gaussian 16 at Tue May 23 16:12:11 2023.
