 Gaussian 16, Revision C.01,
 Gaussian 16:  ES64L-G16RevC.01  3-Jul-2019

 -----------------------------
 # b3lyp/6-31g(2df,p) opt freq
 -----------------------------

 -----------------
 example 1 dft opt
 -----------------
 Symbolic Z-matrix:
 Charge =  0 Multiplicity = 1

 SCF Done:  E(RB3LYP) =  -664.947753866     A.U. after   14 cycles
 SCF Done:  E(RB3LYP) =  -664.953814902     A.U. after   15 cycles
 SCF Done:  E(RB3LYP) =  -664.957381418     A.U. after   15 cycles
 SCF Done:  E(RB3LYP) =  -664.972819135     A.U. after   14 cycles
 SCF Done:  E(RB3LYP) =  -664.976417955     A.U. after   15 cycles
 SCF Done:  E(RB3LYP) =  -664.979324641     A.U. after   13 cycles
 SCF Done:  E(RB3LYP) =  -664.979758054     A.U. after   12 cycles
 SCF Done:  E(RB3LYP) =  -664.980980780     A.U. after   13 cycles
 SCF Done:  E(RB3LYP) =  -664.981408426     A.U. after   12 cycles
 SCF Done:  E(RB3LYP) =  -664.983947821     A.U. after   12 cycles
 SCF Done:  E(RB3LYP) =  -664.997497873     A.U. after   12 cycles
 SCF Done:  E(RB3LYP) =  -664.997557810     A.U. after   11 cycles
 SCF Done:  E(RB3LYP) =  -664.997571478     A.U. after   11 cycles
 SCF Done:  E(RB3LYP) =  -664.997574034     A.U. after   11 cycles
 SCF Done:  E(RB3LYP) =  -664.997595109     A.U. after   10 cycles
 SCF Done:  E(RB3LYP) =  -664.997597320     A.U. after    8 cycles
 SCF Done:  E(RB3LYP) =  -664.997598311     A.U. after    7 cycles
 SCF Done:  E(RB3LYP) =  -664.997598554     A.U. after    6 cycles
 SCF Done:  E(RB3LYP) =  -664.997598616     A.U. after    6 cycles
 Optimization completed.
    -- Stationary point found.
 Normal termination of Gaussian 16 at Sun May 21 04:57:06 2023.

 ----------------------------------------------------------------------
 #N Geom=AllCheck Guess=TCheck SCRF=Check GenChk RB3LYP/6-31G(2df,p) Fr
 eq
 ----------------------------------------------------------------------

 Structure from the checkpoint file:  "opt.chk"
 -----------------
 example 1 dft opt
 -----------------
 Charge =  0 Multiplicity = 1

                         Standard orientation:
 ---------------------------------------------------------------------
 Center     Atomic      Atomic             Coordinates (Angstroms)
 Number     Number       Type             X           Y           Z
 ---------------------------------------------------------------------
      1          6           0        2.280506    2.362354   -0.306321
      2          6           0        1.610627    1.104527    0.158927
      3          8           0        2.288278    0.343441    1.047724
      4          7           0        0.454864    0.765395   -0.243718
      5          6           0       -0.119142   -0.489442    0.220360
      6          6           0       -1.550813   -0.632998   -0.353325
      7          6           0       -2.511063    0.507419    0.005126
      8          8           0       -3.628124    0.311249    0.403980
      9          8           0       -2.030301    1.741379   -0.196977
     10          6           0        0.715571   -1.704497   -0.237018
     11          8           0        1.545879   -1.674234   -1.097394
     12          8           0        0.411628   -2.867545    0.388114
     13          1           0        2.524855    3.008073    0.544600
     14          1           0        1.629430    2.901957   -0.992140
     15          1           0        3.215042    2.119413   -0.825187
     16          1           0        3.173277    0.695562    1.193565
     17          1           0       -0.162906   -0.506820    1.319959
     18          1           0       -2.018360   -1.559517   -0.016723
     19          1           0       -1.471071   -0.675653   -1.446417
     20          1           0       -1.074690    1.665363   -0.435289
     21          1           0       -0.252622   -2.724647    1.073589
 ---------------------------------------------------------------------

 SCF Done:  E(RB3LYP) =  -664.997598616     A.U. after    1 cycles

 The electronic state is 1-A.
 Alpha  occ. eigenvalues --  -19.21596 -19.19795 -19.15950 -19.13452 -19.10906
 Alpha  occ. eigenvalues --  -14.34297 -10.32052 -10.31477 -10.29861 -10.25496
 Alpha  occ. eigenvalues --  -10.22392 -10.21077  -1.11495  -1.10867  -1.08073
 Alpha  occ. eigenvalues --   -1.02966  -1.00036  -0.94349  -0.81274  -0.76372
 Alpha  occ. eigenvalues --   -0.68780  -0.64129  -0.62118  -0.58917  -0.56914
 Alpha  occ. eigenvalues --   -0.53019  -0.52515  -0.50143  -0.48011  -0.46124
 Alpha  occ. eigenvalues --   -0.45367  -0.44969  -0.43166  -0.42917  -0.41408
 Alpha  occ. eigenvalues --   -0.40796  -0.39627  -0.38838  -0.37868  -0.36523
 Alpha  occ. eigenvalues --   -0.32608  -0.30747  -0.29760  -0.29468  -0.27993
 Alpha  occ. eigenvalues --   -0.25386
 Alpha virt. eigenvalues --   -0.01661   0.00126   0.02261   0.03184   0.04699
 Alpha virt. eigenvalues --    0.10007   0.11939   0.12858   0.13251   0.14281
 Alpha virt. eigenvalues --    0.15411   0.17139   0.18968   0.19207   0.20357

 Mulliken charges:
               1
     1  C   -0.498494
     2  C    0.425641
     3  O   -0.385007
     4  N   -0.294136
     5  C   -0.156184
     6  C   -0.360236
     7  C    0.395399
     8  O   -0.326098
     9  O   -0.365725
    10  C    0.458620
    11  O   -0.315253
    12  O   -0.372573
    13  H    0.148514
    14  H    0.167661
    15  H    0.157503
    16  H    0.315836
    17  H    0.111177
    18  H    0.126353
    19  H    0.150892
    20  H    0.307230
    21  H    0.308879
 Sum of Mulliken charges =   0.00000

 Dipole moment (field-independent basis, Debye):
    X=              5.5044    Y=              1.5423    Z=              2.0612  Tot=              6.0766
 Quadrupole moment (field-independent basis, Debye-Ang):
   XX=            -77.0781   YY=            -68.6950   ZZ=            -66.6286
   XY=             17.9642   XZ=              7.4454   YZ=             -4.6513

  Exact polarizability:     108.891       9.744      88.842      -2.956      -3.947      66.089
 Approx polarizability:     157.417      12.989     122.018      -8.836      -8.630     111.100

                      1                      2                      3
                      A                      A                      A
 Frequencies --     42.6716                66.1244                82.4560
 Red. masses --      6.6086                 7.1991                 4.7235
 Frc consts  --      0.0071                 0.0185                 0.0189
 IR Inten    --      7.7122                 2.0877                 4.7775

                      4                      5                      6
                      A                      A                      A
 Frequencies --     99.5446               106.2549               151.7615
 Red. masses --      3.8703                 5.1586                 8.9042
 Frc consts  --      0.0226                 0.0343                 0.1208
 IR Inten    --      5.8172                 5.2484                 6.4097

                      7                      8                      9
                      A                      A                      A
 Frequencies --    157.3692               182.7711               256.2667
 Red. masses --      1.2760                 2.5195                 7.8516
 Frc consts  --      0.0186                 0.0496                 0.3038
 IR Inten    --      0.6296                 6.3816                10.8976

                     10                     11                     12
                      A                      A                      A
 Frequencies --    321.4594               338.0154               367.9606
 Red. masses --      6.0258                 5.0604                 3.4113
 Frc consts  --      0.3669                 0.3407                 0.2721
 IR Inten    --      7.5055                12.9276                14.1641

                     13                     14                     15
                      A                      A                      A
 Frequencies --    409.2893               449.4886               487.9982
 Red. masses --      1.2870                 2.7934                 1.2322
 Frc consts  --      0.1270                 0.3325                 0.1729
 IR Inten    --     74.4003                32.2377                54.4071

                     16                     17                     18
                      A                      A                      A
 Frequencies --    504.1480               584.2672               608.4592
 Red. masses --      2.4134                 3.9591                 3.6833
 Frc consts  --      0.3614                 0.7963                 0.8034
 IR Inten    --      1.3174                 9.8284                 5.2181

                     19                     20                     21
                      A                      A                      A
 Frequencies --    624.8965               692.9124               732.6311
 Red. masses --      4.4239                 6.0860                 6.7936
 Frc consts  --      1.0178                 1.7216                 2.1484
 IR Inten    --      3.5689                 7.6136                14.8734

                     22                     23                     24
                      A                      A                      A
 Frequencies --    741.0940               835.5310               862.4884
 Red. masses --      5.0423                 1.6905                 1.6675
 Frc consts  --      1.6316                 0.6953                 0.7308
 IR Inten    --      5.9464                81.5691                36.4851

                     25                     26                     27
                      A                      A                      A
 Frequencies --    882.3948               933.5731               954.7742
 Red. masses --      4.5246                 4.1862                 3.4358
 Frc consts  --      2.0757                 2.1497                 1.8454
 IR Inten    --     17.5241                11.6721                 3.2702

                     28                     29                     30
                      A                      A                      A
 Frequencies --   1015.4242              1041.0965              1063.8857
 Red. masses --      1.6437                 2.9262                 1.6301
 Frc consts  --      0.9986                 1.8687                 1.0870
 IR Inten    --      2.9670                 6.0151                 2.8343

                     31                     32                     33
                      A                      A                      A
 Frequencies --   1102.0693              1156.0541              1200.2799
 Red. masses --      3.0739                 2.1983                 1.4759
 Frc consts  --      2.1996                 1.7310                 1.2527
 IR Inten    --     32.2857                29.6974                21.7648

                     34                     35                     36
                      A                      A                      A
 Frequencies --   1243.8685              1260.4840              1288.5933
 Red. masses --      1.5716                 1.7227                 1.7245
 Frc consts  --      1.4326                 1.6126                 1.6871
 IR Inten    --     25.2480                20.9264               339.1766

                     37                     38                     39
                      A                      A                      A
 Frequencies --   1303.5755              1334.2788              1342.2325
 Red. masses --      1.7711                 2.4822                 1.5865
 Frc consts  --      1.7732                 2.6036                 1.6840
 IR Inten    --    102.9549               270.9631                32.4048

                     40                     41                     42
                      A                      A                      A
 Frequencies --   1368.3237              1412.1735              1465.5771
 Red. masses --      1.5339                 1.4542                 1.0866
 Frc consts  --      1.6920                 1.7086                 1.3751
 IR Inten    --     15.5273                48.9400                 6.6165

                     43                     44                     45
                      A                      A                      A
 Frequencies --   1472.1381              1478.2510              1484.6017
 Red. masses --      1.1138                 1.1488                 1.1004
 Frc consts  --      1.4221                 1.4791                 1.4290
 IR Inten    --     53.7420                77.9577                64.5902

                     46                     47                     48
                      A                      A                      A
 Frequencies --   1773.4752              1863.1420              1878.9925
 Red. masses --      7.9301                 8.5533                10.3921
 Frc consts  --     14.6954                17.4934                21.6175
 IR Inten    --    420.6942               384.2275               152.8703

                     49                     50                     51
                      A                      A                      A
 Frequencies --   2989.3514              3037.5651              3047.9336
 Red. masses --      1.0821                 1.0398                 1.0654
 Frc consts  --      5.6973                 5.6524                 5.8312
 IR Inten    --     17.2778                 8.1571                 4.3373

                     52                     53                     54
                      A                      A                      A
 Frequencies --   3095.7485              3126.1626              3168.4954
 Red. masses --      1.0998                 1.0975                 1.0983
 Frc consts  --      6.2098                 6.3194                 6.4965
 IR Inten    --      5.5522                10.3040                 2.5635

                     55                     56                     57
                      A                      A                      A
 Frequencies --   3334.9761              3795.0443              3818.0255
 Red. masses --      1.0696                 1.0657                 1.0664
 Frc consts  --      7.0091                 9.0434                 9.1594
 IR Inten    --    717.2563                36.9991                82.3261

 - Thermochemistry -
 -------------------
 Temperature   298.150 Kelvin.  Pressure   1.00000 Atm.
 Atom     1 has atomic number  6 and mass  12.00000

 Molecular mass:   175.04807 amu.
 Principal axes and moments of inertia in atomic units:
                           1         2         3
     Eigenvalues --  1618.998492513.679953732.65695
           X            0.99518   0.09800   0.00449
           Y           -0.09792   0.99507  -0.01544
           Z           -0.00598   0.01492   0.99987
 This molecule is an asymmetric top.
 Rotational symmetry number  1.
 Warning -- assumption of classical behavior for rotation
           may cause significant error
 Rotational temperatures (Kelvin)      0.05350     0.03446     0.02320
 Rotational constants (GHZ):           1.11473     0.71797     0.48350
 Zero-point vibrational energy     421315.3 (Joules/Mol)
                                  100.69678 (Kcal/Mol)
 Warning -- explicit consideration of  18 degrees of freedom as
           vibrations may cause significant error
 Vibrational temperatures:     61.39    95.14   118.64   143.22   152.88
          (Kelvin)            218.35   226.42   262.97   368.71   462.51
                              486.33   529.41   588.88   646.71   702.12
                              725.36   840.63   875.44   899.09   996.95
                             1054.09  1066.27  1202.14  1240.93  1269.57
                             1343.20  1373.71  1460.97  1497.91  1530.69
                             1585.63  1663.30  1726.93  1789.65  1813.56
                             1854.00  1875.55  1919.73  1931.17  1968.71
                             2031.80  2108.64  2118.08  2126.87  2136.01
                             2551.64  2680.65  2703.45  4301.01  4370.38
                             4385.30  4454.09  4497.85  4558.76  4798.29
                             5460.22  5493.29

 Zero-point correction=                           0.160471 (Hartree/Particle)
 Thermal correction to Energy=                    0.172978
 Thermal correction to Enthalpy=                  0.173923
 Thermal correction to Gibbs Free Energy=         0.120728
 Sum of electronic and zero-point Energies=           -664.837128
 Sum of electronic and thermal Energies=              -664.824620
 Sum of electronic and thermal Enthalpies=            -664.823676
 Sum of electronic and thermal Free Energies=         -664.876871

                     E (Thermal)             CV                S
                      KCal/Mol        Cal/Mol-Kelvin    Cal/Mol-Kelvin
 Total                  108.546             44.503            111.958
 Electronic               0.000              0.000              0.000
 Translational            0.889              2.981             41.387
 Rotational               0.889              2.981             31.097
 Vibrational            106.768             38.542             39.474
 Vibration     1          0.595              1.980              5.131
 Vibration     2          0.598              1.970              4.266
 Vibration     3          0.600              1.961              3.832
 Vibration     4          0.604              1.949              3.463
 Vibration     5          0.605              1.944              3.336
 Vibration     6          0.619              1.901              2.650
 Vibration     7          0.621              1.894              2.581
 Vibration     8          0.630              1.863              2.300
 Vibration     9          0.666              1.752              1.687
 Vibration    10          0.707              1.632              1.303
 Vibration    11          0.718              1.600              1.222
 Vibration    12          0.741              1.538              1.088
 Vibration    13          0.774              1.450              0.929
 Vibration    14          0.808              1.362              0.797
 Vibration    15          0.844              1.277              0.689
 Vibration    16          0.859              1.241              0.648
 Vibration    17          0.941              1.065              0.478
 Vibration    18          0.967              1.014              0.435

                           ! Non-Optimized Parameters !
 Normal termination of Gaussian 16 at Sun May 21 05:48:21 2023.
