 Gaussian 16, Revision A.03,
 Gaussian 16:  ES64L-G16RevA.03 25-Dec-2016

 -----------------------------
 # opt freq b3lyp/6-31g(2df,p)
 -----------------------------

 -------------------
 Title Card Required
 -------------------
 Symbolic Z-matrix:
 Charge =  0 Multiplicity = 1

 SCF Done:  E(RB3LYP) =  -411.885864477     A.U. after   15 cycles
 SCF Done:  E(RB3LYP) =  -411.902406154     A.U. after   13 cycles
 SCF Done:  E(RB3LYP) =  -411.905765052     A.U. after   13 cycles
 SCF Done:  E(RB3LYP) =  -411.906011884     A.U. after   10 cycles
 SCF Done:  E(RB3LYP) =  -411.906008484     A.U. after   11 cycles
 SCF Done:  E(RB3LYP) =  -411.906026580     A.U. after   10 cycles
 SCF Done:  E(RB3LYP) =  -411.906029347     A.U. after    8 cycles
 Optimization completed.
    -- Stationary point found.
 Normal termination of Gaussian 16 at Mon May 15 22:40:36 2023.

 ----------------------------------------------------------------------
 #N Geom=AllCheck Guess=TCheck SCRF=Check GenChk RB3LYP/6-31G(2df,p) Fr
 eq
 ----------------------------------------------------------------------

 Structure from the checkpoint file:  "c1cnc2cqn1r[N]C[N]2.chk"
 -------------------
 Title Card Required
 -------------------
 Charge =  0 Multiplicity = 1

                         Standard orientation:
 ---------------------------------------------------------------------
 Center     Atomic      Atomic             Coordinates (Angstroms)
 Number     Number       Type             X           Y           Z
 ---------------------------------------------------------------------
      1          6           0       -1.984620    0.736706   -0.000008
      2          6           0       -1.984618   -0.736719   -0.000005
      3          7           0       -0.926626   -1.478802   -0.000017
      4          6           0        0.246028   -0.739283    0.000003
      5          6           0        0.246019    0.739287    0.000010
      6          7           0       -0.926640    1.478801   -0.000016
      7          7           0        1.449829    1.203925    0.000009
      8          6           0        2.265315   -0.000001   -0.000011
      9          7           0        1.449838   -1.203914    0.000011
     10          1           0       -2.953917    1.234894    0.000071
     11          1           0       -2.953920   -1.234903    0.000078
     12          1           0        2.927124   -0.000002    0.878002
     13          1           0        2.927162    0.000000   -0.877985
 ---------------------------------------------------------------------

 SCF Done:  E(RB3LYP) =  -411.906029347     A.U. after    1 cycles

 The electronic state is 1-A.
 Alpha  occ. eigenvalues --  -14.36988 -14.36976 -14.34623 -14.34620 -10.26939
 Alpha  occ. eigenvalues --  -10.26908 -10.26492 -10.26462 -10.25220  -1.03027
 Alpha  occ. eigenvalues --   -0.97181  -0.95051  -0.86982  -0.76578  -0.69017
 Alpha  occ. eigenvalues --   -0.65118  -0.61107  -0.55451  -0.51617  -0.49771
 Alpha  occ. eigenvalues --   -0.49762  -0.43672  -0.43517  -0.41466  -0.37706
 Alpha  occ. eigenvalues --   -0.34917  -0.34413  -0.32977  -0.28573  -0.27989
 Alpha  occ. eigenvalues --   -0.25736
 Alpha virt. eigenvalues --   -0.12581  -0.02118  -0.00789   0.09817   0.11248
 Alpha virt. eigenvalues --    0.13241   0.13750   0.16048   0.16086   0.17595
 Alpha virt. eigenvalues --    0.22251   0.22525   0.28848   0.28881   0.30758

 Mulliken charges:
               1
     1  C   -0.015400
     2  C   -0.015403
     3  N   -0.274998
     4  C    0.339988
     5  C    0.339989
     6  N   -0.274997
     7  N   -0.281464
     8  C   -0.142091
     9  N   -0.281457
    10  H    0.136466
    11  H    0.136468
    12  H    0.166449
    13  H    0.166451
 Sum of Mulliken charges =  -0.00000

 Dipole moment (field-independent basis, Debye):
    X=             -1.9549    Y=             -0.0000    Z=              0.0001  Tot=              1.9549
 Quadrupole moment (field-independent basis, Debye-Ang):
   XX=            -37.6670   YY=            -63.2389   ZZ=            -48.4472
   XY=              0.0000   XZ=             -0.0004   YZ=              0.0000

  Exact polarizability: 117.539   0.000  66.900  -0.000  -0.000  37.901
 Approx polarizability: 207.125  -0.000 132.775   0.000  -0.000  62.978

                      1                      2                      3
                      A                      A                      A
 Frequencies --    200.4987               224.2234               362.6215
 Red. masses --      3.4506                 5.1345                 2.0655
 Frc consts  --      0.0817                 0.1521                 0.1600
 IR Inten    --      8.1055                 0.0000                 3.7623

                      4                      5                      6
                      A                      A                      A
 Frequencies --    499.4005               521.7275               547.4862
 Red. masses --      6.5982                 7.3303                 3.0573
 Frc consts  --      0.9696                 1.1756                 0.5399
 IR Inten    --      8.3272                32.7442                 0.0000

                      7                      8                      9
                      A                      A                      A
 Frequencies --    555.3010               615.9998               739.8566
 Red. masses --      9.5126                 9.2369                 8.6771
 Frc consts  --      1.7283                 2.0651                 2.7985
 IR Inten    --      0.5941                 0.9825                 0.0970

                     10                     11                     12
                      A                      A                      A
 Frequencies --    848.3446               856.4594               870.0501
 Red. masses --     12.1153                10.6651                 1.4417
 Frc consts  --      5.1372                 4.6092                 0.6430
 IR Inten    --      3.6686                 0.0000                13.2038

                     13                     14                     15
                      A                      A                      A
 Frequencies --    927.5138               944.8461               967.1991
 Red. masses --      1.8246                 6.8224                 3.0749
 Frc consts  --      0.9248                 3.5885                 1.6948
 IR Inten    --      0.1466                 3.4419                20.2545

                     16                     17                     18
                      A                      A                      A
 Frequencies --   1020.6798              1029.3119              1047.6639
 Red. masses --      1.5437                 8.5505                 5.8832
 Frc consts  --      0.9475                 5.3375                 3.8046
 IR Inten    --      0.0000                 0.0038                50.6532

                     19                     20                     21
                      A                      A                      A
 Frequencies --   1153.8072              1180.5689              1265.5629
 Red. masses --      1.0815                 2.3207                 1.6874
 Frc consts  --      0.8483                 1.9057                 1.5923
 IR Inten    --      0.0000                45.1326                 4.1481

                     22                     23                     24
                      A                      A                      A
 Frequencies --   1328.0003              1372.5795              1405.9216
 Red. masses --      2.3388                 1.1291                 1.5318
 Frc consts  --      2.4302                 1.2533                 1.7839
 IR Inten    --      0.0105                18.2301                 0.6040

                     25                     26                     27
                      A                      A                      A
 Frequencies --   1442.3782              1524.1396              1601.2415
 Red. masses --      2.3244                 8.2963                10.4501
 Frc consts  --      2.8492                11.3549                15.7864
 IR Inten    --     27.4162                10.2055                12.8237

                     28                     29                     30
                      A                      A                      A
 Frequencies --   1645.8646              1664.4764              3026.1037
 Red. masses --      9.5279                 7.5965                 1.0602
 Frc consts  --     15.2067                12.3999                 5.7199
 IR Inten    --      0.0028                 0.3704                 0.7589

                     31                     32                     33
                      A                      A                      A
 Frequencies --   3051.7179              3129.6203              3145.9196
 Red. masses --      1.0991                 1.0886                 1.0929
 Frc consts  --      6.0306                 6.2819                 6.3729
 IR Inten    --      0.0115                 7.0853                31.6635

 - Thermochemistry -
 -------------------
 Temperature   298.150 Kelvin.  Pressure   1.00000 Atm.
 Atom     1 has atomic number  6 and mass  12.00000

 Molecular mass:   120.04360 amu.
 Principal axes and moments of inertia in atomic units:
                           1         2         3
     Eigenvalues --   473.55408 988.793801451.25036
           X            1.00000   0.00000  -0.00000
           Y           -0.00000   1.00000  -0.00000
           Z            0.00000   0.00000   1.00000
 This molecule is an asymmetric top.
 Rotational symmetry number  1.
 Warning -- assumption of classical behavior for rotation
           may cause significant error
 Rotational temperatures (Kelvin)      0.18290     0.08760     0.05968
 Rotational constants (GHZ):           3.81106     1.82519     1.24358
 Zero-point vibrational energy     243542.3 (Joules/Mol)
                                   58.20800 (Kcal/Mol)
 Warning -- explicit consideration of   8 degrees of freedom as
           vibrations may cause significant error
 Vibrational temperatures:    288.47   322.61   521.73   718.53   750.65
          (Kelvin)            787.71   798.95   886.29  1064.49  1220.58
                             1232.25  1251.81  1334.49  1359.42  1391.58
                             1468.53  1480.95  1507.35  1660.07  1698.58
                             1820.86  1910.70  1974.84  2022.81  2075.26
                             2192.90  2303.83  2368.03  2394.81  4353.89
                             4390.74  4502.83  4526.28

 Zero-point correction=                           0.092760 (Hartree/Particle)
 Thermal correction to Energy=                    0.098603
 Thermal correction to Enthalpy=                  0.099547
 Thermal correction to Gibbs Free Energy=         0.062585
 Sum of electronic and zero-point Energies=           -411.813269
 Sum of electronic and thermal Energies=              -411.807427
 Sum of electronic and thermal Enthalpies=            -411.806483
 Sum of electronic and thermal Free Energies=         -411.843445

                     E (Thermal)             CV                S
                      KCal/Mol        Cal/Mol-Kelvin    Cal/Mol-Kelvin
 Total                   61.874             22.936             77.793
 Electronic               0.000              0.000              0.000
 Translational            0.889              2.981             40.263
 Rotational               0.889              2.981             28.010
 Vibrational             60.097             16.975              9.521
 Vibration     1          0.638              1.839              2.129
 Vibration     2          0.649              1.804              1.925
 Vibration     3          0.736              1.549              1.111
 Vibration     4          0.855              1.251              0.660
 Vibration     5          0.877              1.202              0.606
 Vibration     6          0.903              1.145              0.549
 Vibration     7          0.911              1.128              0.533
 Vibration     8          0.976              0.998              0.423

 Optimization completed.
    -- Stationary point found.
 Normal termination of Gaussian 16 at Mon May 15 22:58:44 2023.
