 Gaussian 16, Revision A.03,
 Gaussian 16:  ES64L-G16RevA.03 25-Dec-2016

 -----------------------------
 # opt freq b3lyp/6-31g(2df,p)
 -----------------------------

 -------------------
 Title Card Required
 -------------------
 Symbolic Z-matrix:
 Charge =  0 Multiplicity = 1

 SCF Done:  E(RB3LYP) =  -694.855625334     A.U. after   14 cycles
 SCF Done:  E(RB3LYP) =  -694.861005336     A.U. after   12 cycles
 SCF Done:  E(RB3LYP) =  -694.860814479     A.U. after   12 cycles
 SCF Done:  E(RB3LYP) =  -694.861805768     A.U. after   11 cycles
 SCF Done:  E(RB3LYP) =  -694.862049442     A.U. after   10 cycles
 SCF Done:  E(RB3LYP) =  -694.862171647     A.U. after   11 cycles
 SCF Done:  E(RB3LYP) =  -694.862222608     A.U. after    9 cycles
 SCF Done:  E(RB3LYP) =  -694.862257551     A.U. after   10 cycles
 SCF Done:  E(RB3LYP) =  -694.862262726     A.U. after    9 cycles
 SCF Done:  E(RB3LYP) =  -694.862264357     A.U. after    9 cycles
 SCF Done:  E(RB3LYP) =  -694.862264996     A.U. after    8 cycles
 SCF Done:  E(RB3LYP) =  -694.862265035     A.U. after    6 cycles
 Optimization completed.
    -- Stationary point found.
 Normal termination of Gaussian 16 at Mon May 15 16:34:19 2023.

 ----------------------------------------------------------------------
 #N Geom=AllCheck Guess=TCheck SCRF=Check GenChk RB3LYP/6-31G(2df,p) Fr
 eq
 ----------------------------------------------------------------------

 Structure from the checkpoint file:  "Cc1cccqCrc2c1CCqCqdOrOrCC2C.chk"
 -------------------
 Title Card Required
 -------------------
 Charge =  0 Multiplicity = 1

                         Standard orientation:
 ---------------------------------------------------------------------
 Center     Atomic      Atomic             Coordinates (Angstroms)
 Number     Number       Type             X           Y           Z
 ---------------------------------------------------------------------
      1          6           0       -1.072004    3.249463    0.369170
      2          6           0       -1.532145    1.825446    0.171630
      3          6           0       -2.889524    1.549331    0.050638
      4          6           0       -3.337151    0.251953   -0.165244
      5          6           0       -2.443516   -0.811404   -0.252175
      6          6           0       -2.982645   -2.195328   -0.537402
      7          6           0       -1.062972   -0.554667   -0.103943
      8          6           0       -0.609568    0.760562    0.092893
      9          6           0        0.867126    1.105984    0.167977
     10          6           0        1.826338   -0.083424    0.255812
     11          6           0        3.238391    0.318213   -0.167339
     12          8           0        3.516036    1.289424   -0.814343
     13          8           0        4.221871   -0.538633    0.216002
     14          6           0        1.316512   -1.244598   -0.619766
     15          6           0       -0.072224   -1.711572   -0.157991
     16          6           0        0.003306   -2.462292    1.189637
     17          1           0       -1.923008    3.934931    0.361666
     18          1           0       -0.377846    3.568876   -0.416797
     19          1           0       -0.546273    3.384573    1.322378
     20          1           0       -3.606236    2.362908    0.112320
     21          1           0       -4.400541    0.062649   -0.277742
     22          1           0       -4.069984   -2.164936   -0.642633
     23          1           0       -2.751522   -2.915019    0.254799
     24          1           0       -2.576104   -2.609055   -1.468081
     25          1           0        1.050434    1.775805    1.015663
     26          1           0        1.149298    1.690541   -0.716818
     27          1           0        1.884259   -0.435014    1.294356
     28          1           0        3.848492   -1.258207    0.738842
     29          1           0        2.016262   -2.088680   -0.598113
     30          1           0        1.265841   -0.901184   -1.659700
     31          1           0       -0.427224   -2.431198   -0.904199
     32          1           0        0.339712   -1.807280    1.999099
     33          1           0        0.695091   -3.310014    1.123355
     34          1           0       -0.973452   -2.852033    1.484952
 ---------------------------------------------------------------------

 SCF Done:  E(RB3LYP) =  -694.862265035     A.U. after    1 cycles

 The electronic state is 1-A.
 Alpha  occ. eigenvalues --  -19.18547 -19.12306 -10.30654 -10.20915 -10.19917
 Alpha  occ. eigenvalues --  -10.19779 -10.18854 -10.18776 -10.18697 -10.18648
 Alpha  occ. eigenvalues --  -10.18577 -10.18518 -10.18240 -10.17868 -10.17559
 Alpha  occ. eigenvalues --  -10.17501  -1.09746  -1.01628  -0.86953  -0.82739
 Alpha  occ. eigenvalues --   -0.79789  -0.76113  -0.74309  -0.71652  -0.69002
 Alpha  occ. eigenvalues --   -0.65435  -0.64450  -0.61454  -0.60641  -0.56115
 Alpha  occ. eigenvalues --   -0.54721  -0.52274  -0.48967  -0.47638  -0.46385
 Alpha  occ. eigenvalues --   -0.44643  -0.44417  -0.44045  -0.43356  -0.42191
 Alpha  occ. eigenvalues --   -0.41960  -0.40983  -0.40195  -0.39914  -0.39007
 Alpha  occ. eigenvalues --   -0.38062  -0.37739  -0.37191  -0.36741  -0.35711
 Alpha  occ. eigenvalues --   -0.34872  -0.33622  -0.32972  -0.31712  -0.31517
 Alpha  occ. eigenvalues --   -0.30793  -0.26810  -0.23359  -0.22649
 Alpha virt. eigenvalues --    0.00313   0.00345   0.01568   0.04658   0.08232
 Alpha virt. eigenvalues --    0.09453   0.10234   0.10951   0.12311   0.13188
 Alpha virt. eigenvalues --    0.13611   0.14342   0.14504   0.15269   0.16446

 Mulliken charges:
               1
     1  C   -0.498527
     2  C    0.233611
     3  C   -0.209662
     4  C   -0.204228
     5  C    0.221971
     6  C   -0.508601
     7  C    0.129619
     8  C    0.104076
     9  C   -0.311002
    10  C   -0.204969
    11  C    0.449882
    12  O   -0.312564
    13  O   -0.381144
    14  C   -0.231879
    15  C   -0.095794
    16  C   -0.398123
    17  H    0.118298
    18  H    0.134984
    19  H    0.128354
    20  H    0.087108
    21  H    0.085956
    22  H    0.121376
    23  H    0.128073
    24  H    0.131499
    25  H    0.112666
    26  H    0.144988
    27  H    0.084584
    28  H    0.300882
    29  H    0.088133
    30  H    0.118538
    31  H    0.077140
    32  H    0.120028
    33  H    0.107198
    34  H    0.127527
 Sum of Mulliken charges =  -0.00000

 Dipole moment (field-independent basis, Debye):
    X=             -2.1965    Y=             -2.6793    Z=              1.7400  Tot=              3.8770
 Quadrupole moment (field-independent basis, Debye-Ang):
   XX=           -107.1501   YY=            -90.5891   ZZ=            -95.8277
   XY=             -8.9610   XZ=              7.5274   YZ=              1.6938

  Exact polarizability: 180.633   0.119 175.532   4.537   1.770  98.078
 Approx polarizability: 257.805   2.805 271.822   6.597   1.241 164.966

                      1                      2                      3
                      A                      A                      A
 Frequencies --     38.2585                50.2248                89.6570
 Red. masses --      6.8821                 4.3187                 2.8748
 Frc consts  --      0.0059                 0.0064                 0.0136
 IR Inten    --      5.8814                 1.9156                 1.2121

                      4                      5                      6
                      A                      A                      A
 Frequencies --    118.6859               130.2308               147.7748
 Red. masses --      1.7529                 3.1392                 2.0065
 Frc consts  --      0.0145                 0.0314                 0.0258
 IR Inten    --      0.9773                 2.9899                 1.2114

                      7                      8                      9
                      A                      A                      A
 Frequencies --    160.8431               185.0047               207.4968
 Red. masses --      1.6870                 1.0855                 2.6548
 Frc consts  --      0.0257                 0.0219                 0.0673
 IR Inten    --      0.2054                 0.2716                 3.0698

                     10                     11                     12
                      A                      A                      A
 Frequencies --    219.1139               254.7472               275.1719
 Red. masses --      1.2474                 5.1727                 3.2625
 Frc consts  --      0.0353                 0.1978                 0.1455
 IR Inten    --      0.4484                 1.7927                 3.5027

                     13                     14                     15
                      A                      A                      A
 Frequencies --    297.8888               316.8030               340.6737
 Red. masses --      3.2554                 2.8865                 3.0071
 Frc consts  --      0.1702                 0.1707                 0.2056
 IR Inten    --      4.2677                 0.7449                 3.7023

                     16                     17                     18
                      A                      A                      A
 Frequencies --    361.6469               381.6296               466.1477
 Red. masses --      2.9802                 2.5488                 4.3572
 Frc consts  --      0.2296                 0.2187                 0.5578
 IR Inten    --      1.0862                 1.5199                 1.7426

                     19                     20                     21
                      A                      A                      A
 Frequencies --    477.6014               497.2020               518.1882
 Red. masses --      3.1709                 1.3383                 2.4877
 Frc consts  --      0.4261                 0.1949                 0.3936
 IR Inten    --      0.0818                62.4659                10.3998

                     22                     23                     24
                      A                      A                      A
 Frequencies --    536.1370               545.3764               593.0303
 Red. masses --      3.0056                 3.5585                 4.2324
 Frc consts  --      0.5090                 0.6236                 0.8770
 IR Inten    --      3.7157                 0.7917                 2.2643

                     25                     26                     27
                      A                      A                      A
 Frequencies --    605.4804               658.7648               681.2899
 Red. masses --      3.4950                 3.3083                 5.0623
 Frc consts  --      0.7549                 0.8459                 1.3844
 IR Inten    --      0.5403                 2.8323                 7.0051

                     28                     29                     30
                      A                      A                      A
 Frequencies --    729.3411               739.7678               766.0385
 Red. masses --      5.4639                 5.1706                 3.6716
 Frc consts  --      1.7124                 1.6672                 1.2694
 IR Inten    --      2.4398                 0.5545                 0.7222

                     31                     32                     33
                      A                      A                      A
 Frequencies --    825.6628               861.9595               880.1842
 Red. masses --      1.2365                 3.3605                 1.8142
 Frc consts  --      0.4967                 1.4711                 0.8281
 IR Inten    --     13.8166                 4.3651                 2.6314

                     34                     35                     36
                      A                      A                      A
 Frequencies --    884.4413               924.3836               927.5658
 Red. masses --      2.5379                 2.3020                 1.5111
 Frc consts  --      1.1697                 1.1590                 0.7660
 IR Inten    --      6.1978                 4.5516                 1.6510

                     37                     38                     39
                      A                      A                      A
 Frequencies --    949.6714               966.6492               997.6815
 Red. masses --      2.1940                 2.0795                 1.7612
 Frc consts  --      1.1658                 1.1448                 1.0329
 IR Inten    --      0.1042                 0.9135                 0.9846

                     40                     41                     42
                      A                      A                      A
 Frequencies --   1022.2603              1042.6976              1053.8081
 Red. masses --      1.4807                 1.8946                 1.5385
 Frc consts  --      0.9117                 1.2136                 1.0066
 IR Inten    --      4.8992                 2.1812                 0.2588

                     43                     44                     45
                      A                      A                      A
 Frequencies --   1057.2411              1066.2057              1102.8159
 Red. masses --      1.5234                 1.8830                 2.4392
 Frc consts  --      1.0033                 1.2612                 1.7478
 IR Inten    --      2.9580                 1.9059                 7.0860

                     46                     47                     48
                      A                      A                      A
 Frequencies --   1105.0953              1141.9607              1160.0992
 Red. masses --      2.1885                 2.3153                 2.0275
 Frc consts  --      1.5747                 1.7789                 1.6077
 IR Inten    --     11.1116                 2.9843                19.7160

                     49                     50                     51
                      A                      A                      A
 Frequencies --   1188.1886              1190.7504              1216.3620
 Red. masses --      1.5682                 1.4272                 1.6474
 Frc consts  --      1.3044                 1.1923                 1.4361
 IR Inten    --      2.3056                 0.9260                 0.0841

                     52                     53                     54
                      A                      A                      A
 Frequencies --   1256.3860              1262.7439              1272.5180
 Red. masses --      2.2001                 1.5765                 1.9801
 Frc consts  --      2.0462                 1.4810                 1.8891
 IR Inten    --      8.7709                18.9980                11.1024

                     55                     56                     57
                      A                      A                      A
 Frequencies --   1287.9276              1303.1626              1322.1399
 Red. masses --      1.8541                 1.7168                 2.6761
 Frc consts  --      1.8120                 1.7178                 2.7562
 IR Inten    --     23.5417               345.6687                20.4460

                     58                     59                     60
                      A                      A                      A
 Frequencies --   1336.3844              1344.2619              1359.2629
 Red. masses --      1.4715                 1.5653                 1.5254
 Frc consts  --      1.5484                 1.6665                 1.6605
 IR Inten    --     40.8193                 1.7000                13.2899

                     61                     62                     63
                      A                      A                      A
 Frequencies --   1382.4937              1401.6495              1405.9017
 Red. masses --      1.4284                 1.5715                 1.2808
 Frc consts  --      1.6086                 1.8191                 1.4916
 IR Inten    --      2.5702                17.2858                 4.2317

                     64                     65                     66
                      A                      A                      A
 Frequencies --   1417.4607              1421.1724              1438.6246
 Red. masses --      1.2485                 1.2492                 2.6247
 Frc consts  --      1.4779                 1.4866                 3.2006
 IR Inten    --      0.2055                 1.1734                 2.6904

                     67                     68                     69
                      A                      A                      A
 Frequencies --   1476.4476              1483.4926              1486.1807
 Red. masses --      1.1448                 1.1006                 1.0524
 Frc consts  --      1.4704                 1.4271                 1.3695
 IR Inten    --      6.0595                 6.8922                 8.8514

                     70                     71                     72
                      A                      A                      A
 Frequencies --   1486.4206              1493.5978              1497.0082
 Red. masses --      1.1141                 1.0787                 1.1388
 Frc consts  --      1.4503                 1.4178                 1.5037
 IR Inten    --      7.3202                 1.4306                 4.2336

                     73                     74                     75
                      A                      A                      A
 Frequencies --   1500.0235              1502.7104              1510.6906
 Red. masses --      1.3893                 1.2987                 1.3013
 Frc consts  --      1.8419                 1.7278                 1.7498
 IR Inten    --      6.2732                18.0312                 8.7803

                     76                     77                     78
                      A                      A                      A
 Frequencies --   1617.1485              1636.0984              1865.5947
 Red. masses --      5.5041                 6.9677                10.2141
 Frc consts  --      8.4807                10.9890                20.9452
 IR Inten    --      2.4831                 2.0502               207.0967

                     79                     80                     81
                      A                      A                      A
 Frequencies --   3012.9612              3022.9147              3023.0517
 Red. masses --      1.0799                 1.0617                 1.0402
 Frc consts  --      5.7757                 5.7162                 5.6011
 IR Inten    --      8.5686                22.8435                25.2482

                     82                     83                     84
                      A                      A                      A
 Frequencies --   3028.1588              3030.1287              3033.0646
 Red. masses --      1.0406                 1.0605                 1.0438
 Frc consts  --      5.6221                 5.7372                 5.6576
 IR Inten    --     15.6561                14.8680                33.9997

                     85                     86                     87
                      A                      A                      A
 Frequencies --   3039.1556              3059.9136              3069.5075
 Red. masses --      1.0762                 1.0999                 1.1024
 Frc consts  --      5.8567                 6.0678                 6.1194
 IR Inten    --     38.2321                12.5054                41.9820

                     88                     89                     90
                      A                      A                      A
 Frequencies --   3071.4621              3079.3881              3100.8498
 Red. masses --      1.0983                 1.0969                 1.0987
 Frc consts  --      6.1046                 6.1281                 6.2245
 IR Inten    --      9.8199                20.7640                33.8423

                     91                     92                     93
                      A                      A                      A
 Frequencies --   3112.3291              3113.3063              3121.5869
 Red. masses --      1.0993                 1.0991                 1.0979
 Frc consts  --      6.2737                 6.2766                 6.3034
 IR Inten    --     22.4885                23.4572                20.0470

                     94                     95                     96
                      A                      A                      A
 Frequencies --   3158.9122              3177.0389              3800.6178
 Red. masses --      1.0856                 1.0944                 1.0656
 Frc consts  --      6.3827                 6.5086                 9.0685
 IR Inten    --     11.6872                29.4262                25.6381

 - Thermochemistry -
 -------------------
 Temperature   298.150 Kelvin.  Pressure   1.00000 Atm.
 Atom     1 has atomic number  6 and mass  12.00000

 Molecular mass:   218.13068 amu.
 Principal axes and moments of inertia in atomic units:
                           1         2         3
     Eigenvalues --  2196.198164671.606006428.48539
           X            0.99997  -0.00296   0.00647
           Y            0.00294   0.99999   0.00305
           Z           -0.00648  -0.00303   0.99997
 This molecule is an asymmetric top.
 Rotational symmetry number  1.
 Warning -- assumption of classical behavior for rotation
           may cause significant error
 Rotational temperatures (Kelvin)      0.03944     0.01854     0.01347
 Rotational constants (GHZ):           0.82176     0.38632     0.28074
 Zero-point vibrational energy     764280.7 (Joules/Mol)
                                  182.66747 (Kcal/Mol)
 Warning -- explicit consideration of  25 degrees of freedom as
           vibrations may cause significant error
 Vibrational temperatures:     55.05    72.26   129.00   170.76   187.37
          (Kelvin)            212.61   231.42   266.18   298.54   315.26
                              366.52   395.91   428.60   455.81   490.15
                              520.33   549.08   670.68   687.16   715.36
                              745.56   771.38   784.68   853.24   871.15
                              947.82   980.22  1049.36  1064.36  1102.16
                             1187.94  1240.17  1266.39  1272.51  1329.98
                             1334.56  1366.37  1390.79  1435.44  1470.80
                             1500.21  1516.19  1521.13  1534.03  1586.71
                             1589.99  1643.03  1669.12  1709.54  1713.22
                             1750.07  1807.66  1816.81  1830.87  1853.04
                             1874.96  1902.26  1922.76  1934.09  1955.68
                             1989.10  2016.66  2022.78  2039.41  2044.75
                             2069.86  2124.28  2134.41  2138.28  2138.63
                             2148.95  2153.86  2158.20  2162.07  2173.55
                             2326.72  2353.98  2684.17  4334.98  4349.30
                             4349.50  4356.85  4359.68  4363.90  4372.67
                             4402.53  4416.34  4419.15  4430.55  4461.43
                             4477.95  4479.35  4491.27  4544.97  4571.05
                             5468.24

 Zero-point correction=                           0.291099 (Hartree/Particle)
 Thermal correction to Energy=                    0.306636
 Thermal correction to Enthalpy=                  0.307580
 Thermal correction to Gibbs Free Energy=         0.248632
 Sum of electronic and zero-point Energies=           -694.571166
 Sum of electronic and thermal Energies=              -694.555629
 Sum of electronic and thermal Enthalpies=            -694.554685
 Sum of electronic and thermal Free Energies=         -694.613633

                     E (Thermal)             CV                S
                      KCal/Mol        Cal/Mol-Kelvin    Cal/Mol-Kelvin
 Total                  192.417             60.371            124.066
 Electronic               0.000              0.000              0.000
 Translational            0.889              2.981             42.043
 Rotational               0.889              2.981             32.556
 Vibrational            190.640             54.409             49.468
 Vibration     1          0.594              1.982              5.347
 Vibration     2          0.595              1.978              4.809
 Vibration     3          0.602              1.956              3.668
 Vibration     4          0.609              1.934              3.122
 Vibration     5          0.612              1.923              2.943
 Vibration     6          0.617              1.905              2.701
 Vibration     7          0.622              1.890              2.540
 Vibration     8          0.631              1.860              2.277
 Vibration     9          0.641              1.829              2.066
 Vibration    10          0.647              1.812              1.966
 Vibration    11          0.665              1.755              1.697
 Vibration    12          0.677              1.719              1.563
 Vibration    13          0.691              1.678              1.429
 Vibration    14          0.704              1.642              1.327
 Vibration    15          0.720              1.594              1.209
 Vibration    16          0.736              1.551              1.115
 Vibration    17          0.751              1.509              1.033
 Vibration    18          0.824              1.325              0.748
 Vibration    19          0.834              1.300              0.717
 Vibration    20          0.853              1.256              0.665
 Vibration    21          0.873              1.210              0.614
 Vibration    22          0.891              1.170              0.574
 Vibration    23          0.901              1.150              0.554
 Vibration    24          0.951              1.047              0.462
 Vibration    25          0.964              1.020              0.440

                           ! Non-Optimized Parameters !
 Normal termination of Gaussian 16 at Mon May 15 20:15:07 2023.
