 Gaussian 16, Revision A.03,
 Gaussian 16:  ES64L-G16RevA.03 25-Dec-2016

 -----------------------------
 # opt freq b3lyp/6-31g(2df,p)
 -----------------------------

 -------------------
 Title Card Required
 -------------------
 Symbolic Z-matrix:
 Charge =  0 Multiplicity = 1

 SCF Done:  E(RB3LYP) =  -427.652097875     A.U. after   13 cycles
 SCF Done:  E(RB3LYP) =  -427.653747191     A.U. after   10 cycles
 SCF Done:  E(RB3LYP) =  -427.653821548     A.U. after    9 cycles
 SCF Done:  E(RB3LYP) =  -427.653828293     A.U. after    8 cycles
 SCF Done:  E(RB3LYP) =  -427.653828522     A.U. after    6 cycles
 Optimization completed.
    -- Stationary point found.
 Normal termination of Gaussian 16 at Mon May 15 14:37:47 2023.

 ----------------------------------------------------------------------
 #N Geom=AllCheck Guess=TCheck SCRF=Check GenChk RB3LYP/6-31G(2df,p) Fr
 eq
 ----------------------------------------------------------------------

 Structure from the checkpoint file:  "Cc1ccc2cqc1rCCCC2.chk"
 -------------------
 Title Card Required
 -------------------
 Charge =  0 Multiplicity = 1

                         Standard orientation:
 ---------------------------------------------------------------------
 Center     Atomic      Atomic             Coordinates (Angstroms)
 Number     Number       Type             X           Y           Z
 ---------------------------------------------------------------------
      1          6           0       -3.657070   -0.684137    0.021979
      2          6           0       -2.242670   -0.156563    0.007565
      3          6           0       -1.976991    1.214173   -0.029171
      4          6           0       -0.667766    1.678781   -0.044910
      5          6           0        0.420168    0.802745   -0.023998
      6          6           0        0.168159   -0.577815    0.018076
      7          6           0       -1.153953   -1.028226    0.030760
      8          6           0        1.300779   -1.586933    0.082136
      9          6           0        2.654956   -1.007686   -0.342585
     10          6           0        2.896895    0.336304    0.351060
     11          6           0        1.833451    1.353079   -0.079113
     12          1           0       -4.385679    0.130672   -0.002834
     13          1           0       -3.854063   -1.280491    0.920271
     14          1           0       -3.852079   -1.332451   -0.840007
     15          1           0       -2.801095    1.921511   -0.045314
     16          1           0       -0.481210    2.749332   -0.074453
     17          1           0       -1.337334   -2.100639    0.060153
     18          1           0        1.048017   -2.461280   -0.528818
     19          1           0        1.383011   -1.959565    1.113813
     20          1           0        2.671270   -0.861122   -1.430834
     21          1           0        3.454441   -1.718658   -0.108163
     22          1           0        3.896029    0.721297    0.120616
     23          1           0        2.856109    0.194018    1.439240
     24          1           0        2.048310    1.675601   -1.108649
     25          1           0        1.898522    2.259443    0.534172
 ---------------------------------------------------------------------

 SCF Done:  E(RB3LYP) =  -427.653828522     A.U. after    1 cycles

 The electronic state is 1-A.
 Alpha  occ. eigenvalues --  -10.18190 -10.18022 -10.17916 -10.17888 -10.17826
 Alpha  occ. eigenvalues --  -10.17685 -10.17660 -10.17575 -10.17182 -10.17091
 Alpha  occ. eigenvalues --  -10.16927  -0.85484  -0.80772  -0.76143  -0.74659
 Alpha  occ. eigenvalues --   -0.71118  -0.67447  -0.62003  -0.59282  -0.58446
 Alpha  occ. eigenvalues --   -0.53256  -0.48430  -0.46564  -0.45461  -0.42923
 Alpha  occ. eigenvalues --   -0.42249  -0.41767  -0.41105  -0.39137  -0.38215
 Alpha  occ. eigenvalues --   -0.37785  -0.36852  -0.36020  -0.33543  -0.32716
 Alpha  occ. eigenvalues --   -0.32350  -0.30589  -0.30072  -0.23190  -0.22104
 Alpha virt. eigenvalues --    0.00441   0.01437   0.09559   0.10882   0.12236
 Alpha virt. eigenvalues --    0.12961   0.13443   0.13761   0.15463   0.16217
 Alpha virt. eigenvalues --    0.16710   0.17562   0.18101   0.18507   0.19335

 Mulliken charges:
               1
     1  C   -0.491790
     2  C    0.308326
     3  C   -0.210694
     4  C   -0.184106
     5  C    0.205280
     6  C    0.245781
     7  C   -0.284949
     8  C   -0.296816
     9  C   -0.203870
    10  C   -0.202727
    11  C   -0.296597
    12  H    0.119757
    13  H    0.127963
    14  H    0.128031
    15  H    0.084728
    16  H    0.081664
    17  H    0.074540
    18  H    0.101659
    19  H    0.109358
    20  H    0.096758
    21  H    0.090455
    22  H    0.090451
    23  H    0.096521
    24  H    0.108748
    25  H    0.101530
 Sum of Mulliken charges =  -0.00000

 Dipole moment (field-independent basis, Debye):
    X=              0.3124    Y=             -0.2275    Z=              0.0068  Tot=              0.3865
 Quadrupole moment (field-independent basis, Debye-Ang):
   XX=            -62.7573   YY=            -63.5171   ZZ=            -68.2233
   XY=              0.3575   XZ=             -0.0348   YZ=             -0.2403

  Exact polarizability: 151.547   1.559 120.068  -0.153  -1.214  69.883
 Approx polarizability: 206.875   2.363 197.234  -0.365  -3.062 113.092

 ******    1 imaginary frequencies (negative Signs) ******

                      1                      2                      3
                      A                      A                      A
 Frequencies --    -44.8009                84.6997               129.3307
 Red. masses --      1.0315                 2.5803                 2.6348
 Frc consts  --      0.0012                 0.0109                 0.0260
 IR Inten    --      0.1248                 0.2295                 0.1546

                      4                      5                      6
                      A                      A                      A
 Frequencies --    199.1946               250.5495               300.3817
 Red. masses --      2.6259                 2.9902                 1.8920
 Frc consts  --      0.0614                 0.1106                 0.1006
 IR Inten    --      1.9314                 0.3248                 0.3306

                      7                      8                      9
                      A                      A                      A
 Frequencies --    327.9473               396.0059               420.3910
 Red. masses --      2.5496                 3.2810                 3.3578
 Frc consts  --      0.1616                 0.3031                 0.3496
 IR Inten    --      0.2285                 0.0034                 0.2494

                     10                     11                     12
                      A                      A                      A
 Frequencies --    439.3437               452.0982               527.6590
 Red. masses --      2.5622                 3.4147                 3.2525
 Frc consts  --      0.2914                 0.4112                 0.5335
 IR Inten    --      2.0872                 1.1909                 0.4552

                     13                     14                     15
                      A                      A                      A
 Frequencies --    562.4476               608.7321               715.7667
 Red. masses --      2.8790                 2.9733                 3.1032
 Frc consts  --      0.5366                 0.6491                 0.9367
 IR Inten    --      1.2156                 0.2728                 0.1336

                     16                     17                     18
                      A                      A                      A
 Frequencies --    722.5041               743.4690               820.9372
 Red. masses --      3.2881                 4.5341                 1.3289
 Frc consts  --      1.0113                 1.4766                 0.5277
 IR Inten    --      0.4479                 0.1785                12.2166

                     19                     20                     21
                      A                      A                      A
 Frequencies --    837.8174               871.9905               895.3743
 Red. masses --      1.4670                 2.6581                 1.4075
 Frc consts  --      0.6067                 1.1908                 0.6648
 IR Inten    --      6.1166                 0.7731                 0.0265

                     22                     23                     24
                      A                      A                      A
 Frequencies --    912.5230               925.9020               941.9502
 Red. masses --      2.4810                 1.4056                 1.3086
 Frc consts  --      1.2172                 0.7100                 0.6841
 IR Inten    --      1.7410                 2.0933                 0.1829

                     25                     26                     27
                      A                      A                      A
 Frequencies --    950.2802              1001.7514              1022.5950
 Red. masses --      2.7148                 2.1525                 1.5295
 Frc consts  --      1.4444                 1.2727                 0.9423
 IR Inten    --      1.0096                 2.1741                 1.8302

                     28                     29                     30
                      A                      A                      A
 Frequencies --   1060.6929              1077.3092              1102.6175
 Red. masses --      1.5269                 1.7992                 1.8744
 Frc consts  --      1.0121                 1.2303                 1.3427
 IR Inten    --      3.1162                 0.2260                 1.0799

                     31                     32                     33
                      A                      A                      A
 Frequencies --   1144.9934              1152.9135              1173.6553
 Red. masses --      2.0219                 1.1890                 1.5553
 Frc consts  --      1.5618                 0.9312                 1.2623
 IR Inten    --      0.5663                 1.7265                 1.1904

                     34                     35                     36
                      A                      A                      A
 Frequencies --   1182.7362              1221.6431              1255.8830
 Red. masses --      1.3877                 2.0209                 2.1520
 Frc consts  --      1.1438                 1.7770                 1.9998
 IR Inten    --      0.2115                 1.5732                 0.3848

                     37                     38                     39
                      A                      A                      A
 Frequencies --   1269.5820              1273.8768              1311.8512
 Red. masses --      1.6797                 1.3401                 1.2175
 Frc consts  --      1.5951                 1.2813                 1.2345
 IR Inten    --      1.5515                 6.3747                 3.9861

                     40                     41                     42
                      A                      A                      A
 Frequencies --   1331.4284              1357.7824              1370.3853
 Red. masses --      5.2756                 1.4394                 1.4475
 Frc consts  --      5.5101                 1.5635                 1.6016
 IR Inten    --      2.7671                 0.9125                 0.9146

                     43                     44                     45
                      A                      A                      A
 Frequencies --   1372.5807              1387.7893              1412.0756
 Red. masses --      1.4525                 1.5911                 1.2516
 Frc consts  --      1.6122                 1.8054                 1.4704
 IR Inten    --      2.2885                12.1831                 0.1602

                     46                     47                     48
                      A                      A                      A
 Frequencies --   1441.6143              1473.2544              1479.6263
 Red. masses --      2.9379                 1.1127                 1.0842
 Frc consts  --      3.5974                 1.4229                 1.3985
 IR Inten    --      0.7783                 0.1501                 3.4096

                     49                     50                     51
                      A                      A                      A
 Frequencies --   1485.0313              1491.1787              1497.8403
 Red. masses --      1.0443                 1.0863                 1.1466
 Frc consts  --      1.3568                 1.4231                 1.5156
 IR Inten    --      4.2867                 3.7928                 9.7405

                     52                     53                     54
                      A                      A                      A
 Frequencies --   1501.3293              1536.5863              1612.9542
 Red. masses --      1.1013                 2.6771                 6.0259
 Frc consts  --      1.4625                 3.7241                 9.2367
 IR Inten    --      0.9549                29.5658                 1.7601

                     55                     56                     57
                      A                      A                      A
 Frequencies --   1653.3439              2996.3315              2997.7414
 Red. masses --      6.2237                 1.0695                 1.0695
 Frc consts  --     10.0236                 5.6574                 5.6627
 IR Inten    --      4.1665                30.9819                12.4551

                     58                     59                     60
                      A                      A                      A
 Frequencies --   3015.2169              3021.0060              3027.2599
 Red. masses --      1.0665                 1.0609                 1.0373
 Frc consts  --      5.7128                 5.7046                 5.6010
 IR Inten    --     18.2660                29.1060                35.9384

                     61                     62                     63
                      A                      A                      A
 Frequencies --   3050.5913              3051.9545              3067.6308
 Red. masses --      1.0902                 1.0913                 1.0951
 Frc consts  --      5.9778                 5.9892                 6.0715
 IR Inten    --     49.0003                20.3440                65.3036

                     64                     65                     66
                      A                      A                      A
 Frequencies --   3070.5981              3078.9644              3110.3458
 Red. masses --      1.1045                 1.0997                 1.0998
 Frc consts  --      6.1356                 6.1422                 6.2690
 IR Inten    --     50.2618                19.4399                16.1182

                     67                     68                     69
                      A                      A                      A
 Frequencies --   3140.6267              3151.1407              3172.2827
 Red. masses --      1.0888                 1.0858                 1.0938
 Frc consts  --      6.3273                 6.3524                 6.4853
 IR Inten    --     21.9500                11.3962                25.2337

 - Thermochemistry -
 -------------------
 Temperature   298.150 Kelvin.  Pressure   1.00000 Atm.
 Atom     1 has atomic number  6 and mass  12.00000

 Molecular mass:   146.10955 amu.
 Principal axes and moments of inertia in atomic units:
                           1         2         3
     Eigenvalues --   717.534292364.928492997.34364
           X            0.99998   0.00671  -0.00016
           Y           -0.00672   0.99998  -0.00127
           Z            0.00015   0.00127   1.00000
 This molecule is an asymmetric top.
 Rotational symmetry number  1.
 Warning -- assumption of classical behavior for rotation
           may cause significant error
 Rotational temperatures (Kelvin)      0.12071     0.03662     0.02890
 Rotational constants (GHZ):           2.51520     0.76313     0.60211
    1 imaginary frequencies ignored.
 Zero-point vibrational energy     578070.8 (Joules/Mol)
                                  138.16223 (Kcal/Mol)
 Warning -- explicit consideration of  13 degrees of freedom as
           vibrations may cause significant error
 Vibrational temperatures:    121.86   186.08   286.60   360.48   432.18
          (Kelvin)            471.84   569.76   604.85   632.12   650.47
                              759.18   809.24   875.83  1029.83  1039.52
                             1069.69  1181.15  1205.43  1254.60  1288.24
                             1312.92  1332.17  1355.26  1367.24  1441.30
                             1471.29  1526.10  1550.01  1586.42  1647.39
                             1658.79  1688.63  1701.69  1757.67  1806.94
                             1826.65  1832.82  1887.46  1915.63  1953.55
                             1971.68  1974.84  1996.72  2031.66  2074.16
                             2119.68  2128.85  2136.63  2145.47  2155.06
                             2160.08  2210.80  2320.68  2378.79  4311.05
                             4313.08  4338.22  4346.55  4355.55  4389.12
                             4391.08  4413.64  4417.91  4429.94  4475.09
                             4518.66  4533.79  4564.21

 Zero-point correction=                           0.220176 (Hartree/Particle)
 Thermal correction to Energy=                    0.229131
 Thermal correction to Enthalpy=                  0.230075
 Thermal correction to Gibbs Free Energy=         0.186301
 Sum of electronic and zero-point Energies=           -427.433653
 Sum of electronic and thermal Energies=              -427.424698
 Sum of electronic and thermal Enthalpies=            -427.423754
 Sum of electronic and thermal Free Energies=         -427.467528

                     E (Thermal)             CV                S
                      KCal/Mol        Cal/Mol-Kelvin    Cal/Mol-Kelvin
 Total                  143.782             36.911             92.131
 Electronic               0.000              0.000              0.000
 Translational            0.889              2.981             40.848
 Rotational               0.889              2.981             30.010
 Vibrational            142.004             30.950             21.273
 Vibration     1          0.601              1.960              3.779
 Vibration     2          0.612              1.924              2.956
 Vibration     3          0.637              1.841              2.141
 Vibration     4          0.663              1.762              1.727
 Vibration     5          0.693              1.673              1.415
 Vibration     6          0.711              1.620              1.270
 Vibration     7          0.763              1.479              0.977
 Vibration     8          0.783              1.426              0.891
 Vibration     9          0.799              1.384              0.829
 Vibration    10          0.811              1.356              0.789
 Vibration    11          0.883              1.189              0.592
 Vibration    12          0.918              1.113              0.519
 Vibration    13          0.968              1.013              0.435

                           ! Non-Optimized Parameters !
 Normal termination of Gaussian 16 at Mon May 15 15:35:21 2023.
