 Gaussian 16, Revision A.03,
 Gaussian 16:  ES64L-G16RevA.03 25-Dec-2016

 -----------------------------
 # opt freq b3lyp/6-31g(2df,p)
 -----------------------------

 -------------------
 Title Card Required
 -------------------
 Symbolic Z-matrix:
 Charge =  0 Multiplicity = 1

 SCF Done:  E(RB3LYP) =  -387.103853300     A.U. after   13 cycles
 SCF Done:  E(RB3LYP) =  -387.106482658     A.U. after   11 cycles
 SCF Done:  E(RB3LYP) =  -387.106655092     A.U. after   10 cycles
 SCF Done:  E(RB3LYP) =  -387.106668428     A.U. after    8 cycles
 Optimization completed.
    -- Stationary point found.
 Normal termination of Gaussian 16 at Mon May 15 22:35:33 2023.

 ----------------------------------------------------------------------
 #N Geom=AllCheck Guess=TCheck SCRF=Check GenChk RB3LYP/6-31G(2df,p) Fr
 eq
 ----------------------------------------------------------------------

 Structure from the checkpoint file:  "Cc1ccc2cqc1rCCdC2.chk"
 -------------------
 Title Card Required
 -------------------
 Charge =  0 Multiplicity = 1

                         Standard orientation:
 ---------------------------------------------------------------------
 Center     Atomic      Atomic             Coordinates (Angstroms)
 Number     Number       Type             X           Y           Z
 ---------------------------------------------------------------------
      1          6           0        3.272792   -0.624319   -0.000168
      2          6           0        1.840658   -0.145980    0.000014
      3          6           0        1.538550    1.219329    0.000164
      4          6           0        0.221813    1.680927    0.000194
      5          6           0       -0.813763    0.752940    0.000079
      6          6           0       -0.522844   -0.627105    0.000045
      7          6           0        0.785613   -1.073112   -0.000040
      8          6           0       -1.824978   -1.395743    0.000075
      9          6           0       -2.859958   -0.294166   -0.000024
     10          6           0       -2.269038    0.912651   -0.000447
     11          1           0        3.973063    0.215168   -0.000192
     12          1           0        3.490206   -1.240213   -0.880642
     13          1           0        3.490404   -1.240331    0.880176
     14          1           0        2.353810    1.937124    0.000159
     15          1           0        0.016185    2.746878    0.000205
     16          1           0        1.007750   -2.137583   -0.000154
     17          1           0       -1.922414   -2.049290    0.877868
     18          1           0       -1.922424   -2.051186   -0.876193
     19          1           0       -3.925535   -0.484333   -0.000013
     20          1           0       -2.774106    1.871236   -0.000565
 ---------------------------------------------------------------------

 SCF Done:  E(RB3LYP) =  -387.106668428     A.U. after    1 cycles

 The electronic state is 1-A.
 Alpha  occ. eigenvalues --  -10.18913 -10.18507 -10.18161 -10.18060 -10.17982
 Alpha  occ. eigenvalues --  -10.17818 -10.17686 -10.17637 -10.17537 -10.17420
 Alpha  occ. eigenvalues --   -0.86887  -0.81454  -0.75314  -0.72961  -0.68872
 Alpha  occ. eigenvalues --   -0.66151  -0.59625  -0.55473  -0.54775  -0.49884
 Alpha  occ. eigenvalues --   -0.45781  -0.43928  -0.43567  -0.41589  -0.41041
 Alpha  occ. eigenvalues --   -0.40514  -0.37416  -0.37287  -0.35346  -0.34420
 Alpha  occ. eigenvalues --   -0.33646  -0.31842  -0.28271  -0.23768  -0.20577
 Alpha virt. eigenvalues --   -0.01513   0.00628   0.05944   0.10658   0.12322
 Alpha virt. eigenvalues --    0.12709   0.14113   0.15414   0.15722   0.15967
 Alpha virt. eigenvalues --    0.17414   0.18098   0.19420   0.20679   0.21878

 Mulliken charges:
               1
     1  C   -0.489574
     2  C    0.307227
     3  C   -0.184551
     4  C   -0.266045
     5  C    0.265296
     6  C    0.280941
     7  C   -0.343577
     8  C   -0.391226
     9  C   -0.096071
    10  C   -0.167594
    11  H    0.120366
    12  H    0.127895
    13  H    0.127893
    14  H    0.085706
    15  H    0.089855
    16  H    0.081966
    17  H    0.127907
    18  H    0.127887
    19  H    0.098762
    20  H    0.096936
 Sum of Mulliken charges =   0.00000

 Dipole moment (field-independent basis, Debye):
    X=             -0.1656    Y=             -0.5497    Z=              0.0003  Tot=              0.5741
 Quadrupole moment (field-independent basis, Debye-Ang):
   XX=            -53.5764   YY=            -53.6997   ZZ=            -61.3723
   XY=              0.5357   XZ=             -0.0012   YZ=             -0.0000

  Exact polarizability: 148.990   4.422 111.015  -0.002  -0.003  50.962
 Approx polarizability: 224.371  13.561 195.670  -0.008  -0.009  83.146

 ******    1 imaginary frequencies (negative Signs) ******

                      1                      2                      3
                      A                      A                      A
 Frequencies --     -8.1041               132.5746               215.0603
 Red. masses --      1.0390                 3.2074                 2.7044
 Frc consts  --      0.0000                 0.0332                 0.0737
 IR Inten    --      0.0910                 0.7368                 2.2390

                      4                      5                      6
                      A                      A                      A
 Frequencies --    280.2030               283.5702               415.8853
 Red. masses --      2.8543                 3.0352                 3.4194
 Frc consts  --      0.1320                 0.1438                 0.3485
 IR Inten    --      0.8236                 0.6844                 0.4069

                      7                      8                      9
                      A                      A                      A
 Frequencies --    424.3107               427.9971               476.1694
 Red. masses --      2.1195                 2.9361                 4.8474
 Frc consts  --      0.2248                 0.3169                 0.6476
 IR Inten    --      3.9631                 2.4311                 0.0099

                     10                     11                     12
                      A                      A                      A
 Frequencies --    585.3205               600.8326               715.1055
 Red. masses --      2.8598                 5.5112                 1.4337
 Frc consts  --      0.5773                 1.1722                 0.4320
 IR Inten    --      7.4153                 0.3779                12.1455

                     13                     14                     15
                      A                      A                      A
 Frequencies --    740.8095               759.3634               763.2153
 Red. masses --      5.6818                 5.1582                 2.3483
 Frc consts  --      1.8372                 1.7525                 0.8059
 IR Inten    --      1.1720                 0.9261                 0.1848

                     16                     17                     18
                      A                      A                      A
 Frequencies --    839.1191               860.0326               888.5974
 Red. masses --      1.4299                 3.8320                 1.3306
 Frc consts  --      0.5932                 1.6700                 0.6190
 IR Inten    --     29.0337                 3.9969                 4.1892

                     19                     20                     21
                      A                      A                      A
 Frequencies --    928.4752               932.4054               954.5601
 Red. masses --      3.3609                 1.2750                 1.8413
 Frc consts  --      1.7071                 0.6531                 0.9885
 IR Inten    --      5.9724                 0.0198                 0.0653

                     22                     23                     24
                      A                      A                      A
 Frequencies --    956.7433               962.4674              1014.9480
 Red. masses --      2.2423                 1.4029                 1.4607
 Frc consts  --      1.2093                 0.7657                 0.8865
 IR Inten    --      5.6286                 3.1760                 3.5895

                     25                     26                     27
                      A                      A                      A
 Frequencies --   1060.2421              1089.6759              1138.8592
 Red. masses --      1.5213                 1.5673                 1.5532
 Frc consts  --      1.0075                 1.0965                 1.1869
 IR Inten    --      3.1336                 0.6800                 1.0050

                     28                     29                     30
                      A                      A                      A
 Frequencies --   1139.7953              1155.6344              1222.0641
 Red. masses --      1.1380                 1.3516                 1.7954
 Frc consts  --      0.8710                 1.0635                 1.5798
 IR Inten    --      1.2347                 1.4603                 1.1434

                     31                     32                     33
                      A                      A                      A
 Frequencies --   1245.2737              1253.9116              1309.2527
 Red. masses --      1.6692                 3.9839                 1.6244
 Frc consts  --      1.5251                 3.6906                 1.6405
 IR Inten    --      1.8746                 0.5622                 0.9577

                     34                     35                     36
                      A                      A                      A
 Frequencies --   1336.9580              1392.1232              1412.5430
 Red. masses --      2.7936                 2.6413                 1.2499
 Frc consts  --      2.9420                 3.0159                 1.4693
 IR Inten    --      4.2278                 3.0750                 0.8543

                     37                     38                     39
                      A                      A                      A
 Frequencies --   1435.8583              1454.5362              1484.2891
 Red. masses --      1.1237                 3.1105                 1.0443
 Frc consts  --      1.3650                 3.8773                 1.3556
 IR Inten    --      7.1024                 2.8022                 4.3101

                     40                     41                     42
                      A                      A                      A
 Frequencies --   1494.0132              1506.5917              1602.2980
 Red. masses --      1.4307                 1.9575                 5.3389
 Frc consts  --      1.8816                 2.6178                 8.0758
 IR Inten    --     12.0453                 8.4692                 5.3717

                     43                     44                     45
                      A                      A                      A
 Frequencies --   1639.8704              1657.0153              3018.2085
 Red. masses --      6.2524                 6.8225                 1.0602
 Frc consts  --      9.9065                11.0368                 5.6901
 IR Inten    --      2.1557                 1.4846                16.2579

                     46                     47                     48
                      A                      A                      A
 Frequencies --   3025.4622              3042.9286              3075.8251
 Red. masses --      1.0376                 1.0995                 1.0996
 Frc consts  --      5.5960                 5.9984                 6.1293
 IR Inten    --     38.3157                10.4585                19.6266

                     49                     50                     51
                      A                      A                      A
 Frequencies --   3111.1461              3152.1071              3160.8800
 Red. masses --      1.0995                 1.0897                 1.0860
 Frc consts  --      6.2703                 6.3788                 6.3929
 IR Inten    --     15.7767                17.8846                12.8395

                     52                     53                     54
                      A                      A                      A
 Frequencies --   3179.4681              3198.3905              3224.6653
 Red. masses --      1.0941                 1.0867                 1.1028
 Frc consts  --      6.5163                 6.5496                 6.7566
 IR Inten    --     22.1506                 7.3150                16.6344

 - Thermochemistry -
 -------------------
 Temperature   298.150 Kelvin.  Pressure   1.00000 Atm.
 Atom     1 has atomic number  6 and mass  12.00000

 Molecular mass:   130.07825 amu.
 Principal axes and moments of inertia in atomic units:
                           1         2         3
     Eigenvalues --   538.783361776.725912293.27739
           X            1.00000  -0.00238  -0.00001
           Y            0.00238   1.00000  -0.00001
           Z            0.00001   0.00001   1.00000
 This molecule is an asymmetric top.
 Rotational symmetry number  1.
 Warning -- assumption of classical behavior for rotation
           may cause significant error
 Rotational temperatures (Kelvin)      0.16076     0.04875     0.03777
 Rotational constants (GHZ):           3.34966     1.01577     0.78697
    1 imaginary frequencies ignored.
 Zero-point vibrational energy     438895.8 (Joules/Mol)
                                  104.89862 (Kcal/Mol)
 Warning -- explicit consideration of  10 degrees of freedom as
           vibrations may cause significant error
 Vibrational temperatures:    190.75   309.42   403.15   407.99   598.37
          (Kelvin)            610.49   615.79   685.10   842.15   864.46
                             1028.88  1065.86  1092.55  1098.10  1207.31
                             1237.40  1278.49  1335.87  1341.52  1373.40
                             1376.54  1384.78  1460.28  1525.45  1567.80
                             1638.56  1639.91  1662.70  1758.28  1791.67
                             1804.10  1883.72  1923.58  2002.95  2032.33
                             2065.88  2092.75  2135.56  2149.55  2167.65
                             2305.35  2359.41  2384.08  4342.53  4352.97
                             4378.10  4425.43  4476.25  4535.18  4547.80
                             4574.55  4601.77  4639.57

 Zero-point correction=                           0.167167 (Hartree/Particle)
 Thermal correction to Energy=                    0.174596
 Thermal correction to Enthalpy=                  0.175540
 Thermal correction to Gibbs Free Energy=         0.135305
 Sum of electronic and zero-point Energies=           -386.939502
 Sum of electronic and thermal Energies=              -386.932073
 Sum of electronic and thermal Enthalpies=            -386.931129
 Sum of electronic and thermal Free Energies=         -386.971363

                     E (Thermal)             CV                S
                      KCal/Mol        Cal/Mol-Kelvin    Cal/Mol-Kelvin
 Total                  109.560             30.892             84.681
 Electronic               0.000              0.000              0.000
 Translational            0.889              2.981             40.502
 Rotational               0.889              2.981             29.175
 Vibrational            107.783             24.931             15.004
 Vibration     1          0.613              1.921              2.908
 Vibration     2          0.645              1.818              2.000
 Vibration     3          0.680              1.710              1.532
 Vibration     4          0.682              1.704              1.512
 Vibration     5          0.779              1.436              0.906
 Vibration     6          0.786              1.417              0.877
 Vibration     7          0.790              1.409              0.865
 Vibration     8          0.833              1.303              0.720
 Vibration     9          0.942              1.063              0.476
 Vibration    10          0.959              1.030              0.448

 Optimization completed.
    -- Stationary point found.
 Normal termination of Gaussian 16 at Mon May 15 23:11:37 2023.
