 Gaussian 16, Revision A.03,
 Gaussian 16:  ES64L-G16RevA.03 25-Dec-2016

 -----------------------------
 # opt freq b3lyp/6-31g(2df,p)
 -----------------------------

 -------------------
 Title Card Required
 -------------------
 Symbolic Z-matrix:
 Charge =  0 Multiplicity = 1

 SCF Done:  E(RB3LYP) =  -1051.05431061     A.U. after   15 cycles
 SCF Done:  E(RB3LYP) =  -1051.06348343     A.U. after   12 cycles
 SCF Done:  E(RB3LYP) =  -1051.06604465     A.U. after   13 cycles
 SCF Done:  E(RB3LYP) =  -1051.06992580     A.U. after   12 cycles
 SCF Done:  E(RB3LYP) =  -1051.07122398     A.U. after   12 cycles
 SCF Done:  E(RB3LYP) =  -1051.07244537     A.U. after   12 cycles
 SCF Done:  E(RB3LYP) =  -1051.07295813     A.U. after   11 cycles
 SCF Done:  E(RB3LYP) =  -1051.07347725     A.U. after   11 cycles
 SCF Done:  E(RB3LYP) =  -1051.07364961     A.U. after   11 cycles
 SCF Done:  E(RB3LYP) =  -1051.07371888     A.U. after   10 cycles
 SCF Done:  E(RB3LYP) =  -1051.07391860     A.U. after   11 cycles
 SCF Done:  E(RB3LYP) =  -1051.07393048     A.U. after    9 cycles
 SCF Done:  E(RB3LYP) =  -1051.07390526     A.U. after   10 cycles
 SCF Done:  E(RB3LYP) =  -1051.07393925     A.U. after   11 cycles
 SCF Done:  E(RB3LYP) =  -1051.07394998     A.U. after    9 cycles
 SCF Done:  E(RB3LYP) =  -1051.07395009     A.U. after    8 cycles
 SCF Done:  E(RB3LYP) =  -1051.07395024     A.U. after    8 cycles
 SCF Done:  E(RB3LYP) =  -1051.07395045     A.U. after    7 cycles
 SCF Done:  E(RB3LYP) =  -1051.07395049     A.U. after    7 cycles
 Optimization completed.
    -- Stationary point found.

 The electronic state is 1-A.
 Alpha  occ. eigenvalues --  -88.80428 -19.14559 -14.37809 -14.36874 -10.25851
 Alpha  occ. eigenvalues --  -10.23626 -10.23320 -10.23226 -10.22149 -10.21134
 Alpha  occ. eigenvalues --  -10.21088 -10.20868 -10.19579 -10.18124 -10.17484
 Alpha  occ. eigenvalues --  -10.16655  -7.86998  -5.83413  -5.83078  -5.82601
 Alpha  occ. eigenvalues --   -1.04377  -0.98641  -0.95843  -0.81430  -0.78583
 Alpha  occ. eigenvalues --   -0.78089  -0.76143  -0.72612  -0.69628  -0.68364
 Alpha  occ. eigenvalues --   -0.66170  -0.64173  -0.60667  -0.58078  -0.55563
 Alpha  occ. eigenvalues --   -0.53653  -0.49652  -0.48267  -0.47743  -0.47623
 Alpha  occ. eigenvalues --   -0.47210  -0.47028  -0.44917  -0.43857  -0.42846
 Alpha  occ. eigenvalues --   -0.42293  -0.41426  -0.40977  -0.40109  -0.39896
 Alpha  occ. eigenvalues --   -0.38853  -0.37866  -0.37532  -0.36711  -0.36586
 Alpha  occ. eigenvalues --   -0.35830  -0.33150  -0.32410  -0.31186  -0.26347
 Alpha  occ. eigenvalues --   -0.23610  -0.20904  -0.20633  -0.18252
 Alpha virt. eigenvalues --   -0.02725   0.03487   0.07502   0.07804   0.09254
 Alpha virt. eigenvalues --    0.10421   0.10945   0.11540   0.12224   0.12746
 Alpha virt. eigenvalues --    0.12903   0.13095   0.14409   0.14973   0.15315

 Mulliken charges:
               1
     1  C   -0.504418
     2  C    0.300699
     3  C   -0.349525
     4  C    0.093863
     5  C    0.238408
     6  S   -0.497941
     7  N   -0.087113
     8  C   -0.177271
     9  C   -0.078632
    10  O   -0.241635
    11  C   -0.083367
    12  C   -0.168897
    13  C    0.222920
    14  C   -0.503116
    15  N   -0.104459
    16  C   -0.345256
    17  H    0.136812
    18  H    0.126967
    19  H    0.132063
    20  H    0.101299
    21  H    0.111784
    22  H    0.138238
    23  H    0.111991
    24  H    0.093668
    25  H    0.115377
    26  H    0.097040
    27  H    0.112649
    28  H    0.162985
    29  H    0.164832
    30  H    0.135482
    31  H    0.114433
    32  H    0.148171
    33  H    0.144515
    34  H    0.137433
 Sum of Mulliken charges =  -0.00000

 Dipole moment (field-independent basis, Debye):
    X=              3.1735    Y=             -3.7581    Z=              1.8361  Tot=              5.2503
 Quadrupole moment (field-independent basis, Debye-Ang):
   XX=            -88.3256   YY=           -109.8030   ZZ=           -103.2245
   XY=             -2.5699   XZ=              3.5497   YZ=              5.1611

 Normal termination of Gaussian 16 at Tue May 16 04:09:52 2023.

 ----------------------------------------------------------------------
 #N Geom=AllCheck Guess=TCheck SCRF=Check GenChk RB3LYP/6-31G(2df,p) Fr
 eq
 ----------------------------------------------------------------------

 Structure from the checkpoint file:  "Cc1ccqCqdSrN2CCOCC2rcqCrn1C.chk"
 -------------------
 Title Card Required
 -------------------
 Charge =  0 Multiplicity = 1

                         Standard orientation:
 ---------------------------------------------------------------------
 Center     Atomic      Atomic             Coordinates (Angstroms)
 Number     Number       Type             X           Y           Z
 ---------------------------------------------------------------------
      1          6           0        3.142962   -2.511965   -0.918146
      2          6           0        2.346814   -1.316749   -0.509435
      3          6           0        1.013954   -1.049912   -0.685152
      4          6           0        0.742290    0.252556   -0.151232
      5          6           0       -0.546834    0.958579   -0.219134
      6         16           0       -0.630190    2.531916   -0.795588
      7          7           0       -1.653386    0.252630    0.145017
      8          6           0       -1.635754   -0.904085    1.047690
      9          6           0       -2.619965   -1.968157    0.564059
     10          8           0       -3.925581   -1.441300    0.430815
     11          6           0       -3.940617   -0.348603   -0.472784
     12          6           0       -3.005734    0.779125   -0.034396
     13          6           0        1.941425    0.738995    0.352443
     14          6           0        2.265356    2.010863    1.061794
     15          7           0        2.902717   -0.222223    0.133727
     16          6           0        4.279800   -0.115817    0.573918
     17          1           0        2.483168   -3.232018   -1.407424
     18          1           0        3.611636   -3.021106   -0.066653
     19          1           0        3.941211   -2.264753   -1.629540
     20          1           0        0.311613   -1.685255   -1.203526
     21          1           0       -1.947056   -0.567567    2.048313
     22          1           0       -0.629467   -1.310394    1.116063
     23          1           0       -2.680176   -2.782633    1.291739
     24          1           0       -2.273374   -2.383041   -0.397547
     25          1           0       -4.971474    0.013852   -0.509302
     26          1           0       -3.653907   -0.687944   -1.481849
     27          1           0       -3.360363    1.213977    0.910901
     28          1           0       -2.973497    1.575091   -0.778239
     29          1           0        1.353906    2.585311    1.223000
     30          1           0        2.942731    2.644171    0.475256
     31          1           0        2.744546    1.826198    2.031457
     32          1           0        4.673217    0.879858    0.355913
     33          1           0        4.890038   -0.847662    0.044483
     34          1           0        4.377444   -0.298179    1.650891
 ---------------------------------------------------------------------

 SCF Done:  E(RB3LYP) =  -1051.07395049     A.U. after    1 cycles
