 Gaussian 16, Revision A.03,
 Gaussian 16:  ES64L-G16RevA.03 25-Dec-2016

 -----------------------------
 # opt freq b3lyp/6-31g(2df,p)
 -----------------------------

 -------------------
 Title Card Required
 -------------------
 Symbolic Z-matrix:
 Charge =  0 Multiplicity = 1

 SCF Done:  E(RB3LYP) =  -693.858780800     A.U. after   14 cycles
 SCF Done:  E(RB3LYP) =  -693.872086311     A.U. after   13 cycles
 SCF Done:  E(RB3LYP) =  -693.874520290     A.U. after   12 cycles
 SCF Done:  E(RB3LYP) =  -693.875250167     A.U. after   11 cycles
 SCF Done:  E(RB3LYP) =  -693.876117815     A.U. after   11 cycles
 SCF Done:  E(RB3LYP) =  -693.876469541     A.U. after   11 cycles
 SCF Done:  E(RB3LYP) =  -693.876582885     A.U. after   12 cycles
 SCF Done:  E(RB3LYP) =  -693.876723766     A.U. after   10 cycles
 SCF Done:  E(RB3LYP) =  -693.876730632     A.U. after    8 cycles
 SCF Done:  E(RB3LYP) =  -693.876732173     A.U. after    7 cycles
 SCF Done:  E(RB3LYP) =  -693.876732795     A.U. after    7 cycles
 SCF Done:  E(RB3LYP) =  -693.876733632     A.U. after    7 cycles
 SCF Done:  E(RB3LYP) =  -693.876734556     A.U. after    8 cycles
 SCF Done:  E(RB3LYP) =  -693.876734795     A.U. after    7 cycles
 Optimization completed.
    -- Stationary point found.
 Normal termination of Gaussian 16 at Mon May 15 16:50:58 2023.

 ----------------------------------------------------------------------
 #N Geom=AllCheck Guess=TCheck SCRF=Check GenChk RB3LYP/6-31G(2df,p) Fr
 eq
 ----------------------------------------------------------------------

 Structure from the checkpoint file:  "CC1qCrCCC2qCC1rCCqdOrOCqdOrC2.chk"
 -------------------
 Title Card Required
 -------------------
 Charge =  0 Multiplicity = 1

                         Standard orientation:
 ---------------------------------------------------------------------
 Center     Atomic      Atomic             Coordinates (Angstroms)
 Number     Number       Type             X           Y           Z
 ---------------------------------------------------------------------
      1          6           0        3.250556   -1.317747   -0.597104
      2          6           0        2.684297    0.061404   -0.205765
      3          6           0        3.819931    1.094003   -0.295432
      4          6           0        1.543016    0.479461   -1.163025
      5          6           0        0.258849   -0.348131   -1.002247
      6          6           0       -0.285504   -0.364836    0.447969
      7          6           0        0.850764   -0.790836    1.402267
      8          6           0        2.132606    0.039603    1.239764
      9          6           0       -0.862158    1.003532    0.856240
     10          6           0       -2.102736    1.405196    0.087551
     11          8           0       -2.418844    2.531190   -0.152741
     12          8           0       -2.944093    0.392775   -0.344145
     13          6           0       -2.693632   -0.962806   -0.196485
     14          8           0       -3.482864   -1.728035   -0.661331
     15          6           0       -1.450976   -1.358772    0.570059
     16          1           0        3.653263   -1.294123   -1.615490
     17          1           0        2.501293   -2.113326   -0.560782
     18          1           0        4.066147   -1.605050    0.075453
     19          1           0        4.227155    1.144857   -1.311289
     20          1           0        4.642863    0.835005    0.380073
     21          1           0        3.468573    2.096106   -0.025922
     22          1           0        1.888286    0.407349   -2.201263
     23          1           0        1.316881    1.540830   -0.998150
     24          1           0        0.448497   -1.384910   -1.305379
     25          1           0       -0.504490    0.028910   -1.693955
     26          1           0        1.072551   -1.849704    1.219600
     27          1           0        0.500412   -0.730717    2.440555
     28          1           0        2.900499   -0.345252    1.921594
     29          1           0        1.940558    1.072657    1.557560
     30          1           0       -0.155248    1.826076    0.745829
     31          1           0       -1.144914    0.975092    1.917856
     32          1           0       -1.178842   -2.361413    0.231962
     33          1           0       -1.747160   -1.450261    1.624729
 ---------------------------------------------------------------------

 SCF Done:  E(RB3LYP) =  -693.876734795     A.U. after    1 cycles

 The electronic state is 1-A.
 Alpha  occ. eigenvalues --  -19.20379 -19.14210 -19.14199 -10.32655 -10.32634
 Alpha  occ. eigenvalues --  -10.22461 -10.21553 -10.21539 -10.20453 -10.19902
 Alpha  occ. eigenvalues --  -10.19772 -10.19175 -10.19046 -10.18184 -10.17978
 Alpha  occ. eigenvalues --   -1.12893  -1.06868  -1.02192  -0.87455  -0.82826
 Alpha  occ. eigenvalues --   -0.75946  -0.75667  -0.74869  -0.69401  -0.67221
 Alpha  occ. eigenvalues --   -0.66457  -0.63490  -0.58835  -0.54341  -0.53066
 Alpha  occ. eigenvalues --   -0.50976  -0.50423  -0.48969  -0.47182  -0.46663
 Alpha  occ. eigenvalues --   -0.46039  -0.45070  -0.44819  -0.43869  -0.42991
 Alpha  occ. eigenvalues --   -0.41884  -0.40378  -0.39204  -0.38896  -0.37983
 Alpha  occ. eigenvalues --   -0.37660  -0.37412  -0.36345  -0.35865  -0.35572
 Alpha  occ. eigenvalues --   -0.34617  -0.32390  -0.32050  -0.31698  -0.30855
 Alpha  occ. eigenvalues --   -0.29131  -0.27335
 Alpha virt. eigenvalues --   -0.02785   0.00886   0.04923   0.07477   0.08531
 Alpha virt. eigenvalues --    0.10827   0.11721   0.12025   0.12640   0.13175
 Alpha virt. eigenvalues --    0.13806   0.14710   0.14962   0.15455   0.15741

 Mulliken charges:
               1
     1  C   -0.415893
     2  C    0.286818
     3  C   -0.423180
     4  C   -0.230983
     5  C   -0.258959
     6  C    0.231880
     7  C   -0.256760
     8  C   -0.231978
     9  C   -0.377839
    10  C    0.421501
    11  O   -0.290943
    12  O   -0.219727
    13  C    0.421716
    14  O   -0.289967
    15  C   -0.393311
    16  H    0.114528
    17  H    0.111291
    18  H    0.112939
    19  H    0.111853
    20  H    0.110187
    21  H    0.109782
    22  H    0.098105
    23  H    0.099710
    24  H    0.106481
    25  H    0.112628
    26  H    0.102405
    27  H    0.092134
    28  H    0.094937
    29  H    0.095677
    30  H    0.144047
    31  H    0.135987
    32  H    0.140010
    33  H    0.134923
 Sum of Mulliken charges =  -0.00000

 Dipole moment (field-independent basis, Debye):
    X=              4.8505    Y=             -1.3220    Z=              2.2682  Tot=              5.5154
 Quadrupole moment (field-independent basis, Debye-Ang):
   XX=           -107.4162   YY=            -99.1742   ZZ=            -87.2898
   XY=              1.1430   XZ=             -7.0126   YZ=             -0.5951

  Exact polarizability: 146.932   3.638 130.171   2.604   0.303 111.553
 Approx polarizability: 186.943   5.591 211.768   7.557   2.655 175.790

                      1                      2                      3
                      A                      A                      A
 Frequencies --     36.1511                74.8256                86.4594
 Red. masses --      6.1190                 3.5726                 4.7800
 Frc consts  --      0.0047                 0.0118                 0.0211
 IR Inten    --      0.1256                 0.9738                 5.1177

                      4                      5                      6
                      A                      A                      A
 Frequencies --    122.1072               157.0491               207.6567
 Red. masses --     11.5074                 2.8647                 1.1606
 Frc consts  --      0.1011                 0.0416                 0.0295
 IR Inten    --      0.2260                 0.7839                 0.1964

                      7                      8                      9
                      A                      A                      A
 Frequencies --    220.0227               242.6096               264.9036
 Red. masses --      3.0425                 1.3728                 1.7931
 Frc consts  --      0.0868                 0.0476                 0.0741
 IR Inten    --      0.7835                 0.6191                 0.3104

                     10                     11                     12
                      A                      A                      A
 Frequencies --    291.3475               295.7076               357.9573
 Red. masses --      2.3361                 1.7984                 2.8885
 Frc consts  --      0.1168                 0.0927                 0.2181
 IR Inten    --      0.5219                 0.2262                 2.9963

                     13                     14                     15
                      A                      A                      A
 Frequencies --    367.8978               381.2791               403.8160
 Red. masses --      2.7618                 2.5668                 2.1718
 Frc consts  --      0.2202                 0.2198                 0.2087
 IR Inten    --      2.2655                 0.8413                 2.3318

                     16                     17                     18
                      A                      A                      A
 Frequencies --    414.7587               426.0398               450.7922
 Red. masses --      1.9575                 2.6548                 3.1938
 Frc consts  --      0.1984                 0.2839                 0.3824
 IR Inten    --      0.7982                 2.4295                 3.3093

                     19                     20                     21
                      A                      A                      A
 Frequencies --    484.7759               494.3183               550.6472
 Red. masses --      4.0468                 3.5249                 3.2227
 Frc consts  --      0.5603                 0.5075                 0.5757
 IR Inten    --      2.3762                 0.3230                 4.4299

                     22                     23                     24
                      A                      A                      A
 Frequencies --    565.1112               596.5660               627.4523
 Red. masses --      3.2289                 4.8042                 3.4202
 Frc consts  --      0.6075                 1.0074                 0.7934
 IR Inten    --     11.9695                 6.5015                19.8536

                     25                     26                     27
                      A                      A                      A
 Frequencies --    659.0775               703.5822               775.1220
 Red. masses --      2.6986                 3.1269                 2.0960
 Frc consts  --      0.6907                 0.9120                 0.7420
 IR Inten    --      3.8789                 1.0381                 1.9380

                     28                     29                     30
                      A                      A                      A
 Frequencies --    791.0559               817.0857               896.3864
 Red. masses --      2.0249                 4.4378                 2.0369
 Frc consts  --      0.7466                 1.7456                 0.9643
 IR Inten    --      2.2282                 6.1077                 1.1237

                     31                     32                     33
                      A                      A                      A
 Frequencies --    902.8246               917.9271               931.3092
 Red. masses --      2.1862                 1.9465                 2.2302
 Frc consts  --      1.0499                 0.9663                 1.1397
 IR Inten    --      0.0834                 0.2067                 6.2155

                     34                     35                     36
                      A                      A                      A
 Frequencies --    946.1133               960.0383               974.2779
 Red. masses --      1.6172                 4.5273                 1.8070
 Frc consts  --      0.8529                 2.4585                 1.0106
 IR Inten    --      0.2910                28.0311                 4.2585

                     37                     38                     39
                      A                      A                      A
 Frequencies --    976.9702              1000.8742              1017.8068
 Red. masses --      1.7085                 1.9258                 1.9981
 Frc consts  --      0.9608                 1.1366                 1.2196
 IR Inten    --      5.6029                 8.1516                 3.5847

                     40                     41                     42
                      A                      A                      A
 Frequencies --   1031.7006              1042.3788              1067.8712
 Red. masses --      2.0700                 1.5883                 1.7618
 Frc consts  --      1.2981                 1.0168                 1.1837
 IR Inten    --      2.8132                 1.8711                 5.4517

                     43                     44                     45
                      A                      A                      A
 Frequencies --   1089.0904              1121.4649              1135.0424
 Red. masses --      3.4607                 2.1339                 2.7439
 Frc consts  --      2.4185                 1.5813                 2.0828
 IR Inten    --    253.9047               109.9972                 7.2977

                     46                     47                     48
                      A                      A                      A
 Frequencies --   1174.3069              1197.0056              1206.2463
 Red. masses --      1.2416                 1.7244                 1.4680
 Frc consts  --      1.0088                 1.4557                 1.2585
 IR Inten    --      3.8903                 1.2074                26.3328

                     49                     50                     51
                      A                      A                      A
 Frequencies --   1212.5293              1241.3900              1245.4906
 Red. masses --      1.5540                 2.1701                 4.1353
 Frc consts  --      1.3461                 1.9704                 3.7795
 IR Inten    --     55.3661                 3.3003               124.3847

                     52                     53                     54
                      A                      A                      A
 Frequencies --   1284.6551              1298.5822              1299.8068
 Red. masses --      1.9328                 1.5968                 1.4502
 Frc consts  --      1.8793                 1.5865                 1.4435
 IR Inten    --     13.3151                 7.2589                 0.8118

                     55                     56                     57
                      A                      A                      A
 Frequencies --   1324.0933              1339.0238              1357.4132
 Red. masses --      1.7017                 1.7054                 1.4650
 Frc consts  --      1.7578                 1.8015                 1.5904
 IR Inten    --      4.0244                 6.4351                 0.0529

                     58                     59                     60
                      A                      A                      A
 Frequencies --   1363.7297              1366.6300              1392.4792
 Red. masses --      1.4051                 1.6759                 1.4389
 Frc consts  --      1.5396                 1.8442                 1.6439
 IR Inten    --      1.6536                 6.3392                 0.9960

                     61                     62                     63
                      A                      A                      A
 Frequencies --   1397.6454              1401.5666              1427.8672
 Red. masses --      1.4949                 1.2429                 1.2481
 Frc consts  --      1.7205                 1.4385                 1.4992
 IR Inten    --      0.0093                 6.1999                 5.7118

                     64                     65                     66
                      A                      A                      A
 Frequencies --   1452.9990              1466.4188              1478.8380
 Red. masses --      1.0788                 1.0845                 1.0691
 Frc consts  --      1.3419                 1.3740                 1.3776
 IR Inten    --      4.8851                 6.8782                 3.6160

                     67                     68                     69
                      A                      A                      A
 Frequencies --   1480.4617              1484.9345              1492.2741
 Red. masses --      1.0654                 1.0729                 1.0671
 Frc consts  --      1.3758                 1.3938                 1.4001
 IR Inten    --      1.9451                 0.7365                 4.9836

                     70                     71                     72
                      A                      A                      A
 Frequencies --   1497.8570              1505.0615              1508.4307
 Red. masses --      1.0655                 1.0894                 1.0706
 Frc consts  --      1.4085                 1.4539                 1.4353
 IR Inten    --      6.9207                 2.9488                 5.6097

                     73                     74                     75
                      A                      A                      A
 Frequencies --   1514.0919              1851.9540              1891.1820
 Red. masses --      1.0611                12.7939                12.5452
 Frc consts  --      1.4331                25.8531                26.4360
 IR Inten    --      4.4904               408.4038               206.9013

                     76                     77                     78
                      A                      A                      A
 Frequencies --   3015.3375              3017.9843              3018.7703
 Red. masses --      1.0604                 1.0628                 1.0523
 Frc consts  --      5.6808                 5.7035                 5.6499
 IR Inten    --      5.9188                20.6339                 3.0142

                     79                     80                     81
                      A                      A                      A
 Frequencies --   3019.7216              3023.1822              3023.9189
 Red. masses --      1.0677                 1.0527                 1.0550
 Frc consts  --      5.7365                 5.6686                 5.6840
 IR Inten    --     13.1219                24.1338                42.2110

                     82                     83                     84
                      A                      A                      A
 Frequencies --   3027.4079              3034.4920              3050.0216
 Red. masses --      1.0631                 1.0437                 1.0984
 Frc consts  --      5.7405                 5.6624                 6.0201
 IR Inten    --     23.2931                 7.4814                33.6368

                     85                     86                     87
                      A                      A                      A
 Frequencies --   3054.7795              3060.5927              3065.5168
 Red. masses --      1.0979                 1.1027                 1.1026
 Frc consts  --      6.0362                 6.0855                 6.1047
 IR Inten    --     11.6245                17.6750                63.7272

                     88                     89                     90
                      A                      A                      A
 Frequencies --   3090.3066              3092.5880              3096.4916
 Red. masses --      1.1016                 1.1012                 1.1008
 Frc consts  --      6.1985                 6.2053                 6.2186
 IR Inten    --      3.3155                40.7825                49.1462

                     91                     92                     93
                      A                      A                      A
 Frequencies --   3106.0304              3107.8401              3130.4869
 Red. masses --      1.0932                 1.0982                 1.0898
 Frc consts  --      6.2141                 6.2496                 6.2924
 IR Inten    --     10.3045                33.4663                 7.0140

 - Thermochemistry -
 -------------------
 Temperature   298.150 Kelvin.  Pressure   1.00000 Atm.
 Atom     1 has atomic number  6 and mass  12.00000

 Molecular mass:   210.12559 amu.
 Principal axes and moments of inertia in atomic units:
                           1         2         3
     Eigenvalues --  1586.550784747.810565356.39866
           X            0.99995   0.00419  -0.00946
           Y           -0.00428   0.99995  -0.00892
           Z            0.00942   0.00896   0.99992
 This molecule is an asymmetric top.
 Rotational symmetry number  1.
 Warning -- assumption of classical behavior for rotation
           may cause significant error
 Rotational temperatures (Kelvin)      0.05459     0.01824     0.01617
 Rotational constants (GHZ):           1.13753     0.38012     0.33693
 Zero-point vibrational energy     748076.9 (Joules/Mol)
                                  178.79466 (Kcal/Mol)
 Warning -- explicit consideration of  23 degrees of freedom as
           vibrations may cause significant error
 Vibrational temperatures:     52.01   107.66   124.40   175.69   225.96
          (Kelvin)            298.77   316.56   349.06   381.14   419.18
                              425.46   515.02   529.32   548.58   581.00
                              596.75   612.98   648.59   697.48   711.21
                              792.26   813.07   858.33   902.76   948.27
                             1012.30  1115.23  1138.15  1175.60  1289.70
                             1298.96  1320.69  1339.95  1361.25  1381.28
                             1401.77  1405.64  1440.03  1464.40  1484.39
                             1499.75  1536.43  1566.96  1613.54  1633.07
                             1689.57  1722.22  1735.52  1744.56  1786.08
                             1791.98  1848.33  1868.37  1870.13  1905.07
                             1926.56  1953.01  1962.10  1966.28  2003.47
                             2010.90  2016.54  2054.38  2090.54  2109.85
                             2127.72  2130.05  2136.49  2147.05  2155.08
                             2165.45  2170.30  2178.44  2664.55  2720.99
                             4338.40  4342.21  4343.34  4344.71  4349.68
                             4350.74  4355.76  4365.96  4388.30  4395.15
                             4403.51  4410.59  4446.26  4449.54  4455.16
                             4468.88  4471.49  4504.07

 Zero-point correction=                           0.284927 (Hartree/Particle)
 Thermal correction to Energy=                    0.299055
 Thermal correction to Enthalpy=                  0.299999
 Thermal correction to Gibbs Free Energy=         0.244522
 Sum of electronic and zero-point Energies=           -693.591807
 Sum of electronic and thermal Energies=              -693.577680
 Sum of electronic and thermal Enthalpies=            -693.576736
 Sum of electronic and thermal Free Energies=         -693.632213

                     E (Thermal)             CV                S
                      KCal/Mol        Cal/Mol-Kelvin    Cal/Mol-Kelvin
 Total                  187.660             56.650            116.761
 Electronic               0.000              0.000              0.000
 Translational            0.889              2.981             41.931
 Rotational               0.889              2.981             32.067
 Vibrational            185.882             50.688             42.762
 Vibration     1          0.594              1.982              5.460
 Vibration     2          0.599              1.966              4.022
 Vibration     3          0.601              1.959              3.739
 Vibration     4          0.610              1.931              3.067
 Vibration     5          0.621              1.895              2.585
 Vibration     6          0.641              1.829              2.064
 Vibration     7          0.647              1.811              1.959
 Vibration     8          0.659              1.775              1.784
 Vibration     9          0.671              1.737              1.629
 Vibration    10          0.687              1.690              1.466
 Vibration    11          0.690              1.682              1.441
 Vibration    12          0.733              1.559              1.131
 Vibration    13          0.740              1.538              1.089
 Vibration    14          0.751              1.510              1.034
 Vibration    15          0.769              1.462              0.949
 Vibration    16          0.778              1.438              0.910
 Vibration    17          0.788              1.414              0.872
 Vibration    18          0.810              1.359              0.793
 Vibration    19          0.841              1.284              0.697
 Vibration    20          0.850              1.263              0.672
 Vibration    21          0.906              1.138              0.543
 Vibration    22          0.921              1.107              0.514
 Vibration    23          0.954              1.039              0.456

 Optimization completed.
    -- Stationary point found.
 Normal termination of Gaussian 16 at Mon May 15 19:48:41 2023.
