 Gaussian 16, Revision A.03,
 Gaussian 16:  ES64L-G16RevA.03 25-Dec-2016

 -----------------------------
 # opt freq b3lyp/6-31g(2df,p)
 -----------------------------

 -------------------
 Title Card Required
 -------------------
 Symbolic Z-matrix:
 Charge =  0 Multiplicity = 1

 SCF Done:  E(RB3LYP) =  -464.975384497     A.U. after   12 cycles
 SCF Done:  E(RB3LYP) =  -464.978397712     A.U. after   10 cycles
 SCF Done:  E(RB3LYP) =  -464.978669891     A.U. after    9 cycles
 SCF Done:  E(RB3LYP) =  -464.978698695     A.U. after    9 cycles
 SCF Done:  E(RB3LYP) =  -464.978706987     A.U. after    8 cycles
 SCF Done:  E(RB3LYP) =  -464.978712943     A.U. after    9 cycles
 SCF Done:  E(RB3LYP) =  -464.978713013     A.U. after    7 cycles
 Optimization completed.
    -- Stationary point found.
 Normal termination of Gaussian 16 at Mon May 15 23:01:24 2023.

 ----------------------------------------------------------------------
 #N Geom=AllCheck Guess=TCheck SCRF=Check GenChk RB3LYP/6-31G(2df,p) Fr
 eq
 ----------------------------------------------------------------------

 Structure from the checkpoint file:  "CC1qOrCCCqCrqOrCC1.chk"
 -------------------
 Title Card Required
 -------------------
 Charge =  0 Multiplicity = 1

                         Standard orientation:
 ---------------------------------------------------------------------
 Center     Atomic      Atomic             Coordinates (Angstroms)
 Number     Number       Type             X           Y           Z
 ---------------------------------------------------------------------
      1          6           0        2.030758    0.299850    1.392893
      2          6           0        1.518237    0.001616   -0.023711
      3          8           0        2.641329   -0.115953   -0.905390
      4          6           0        0.683731   -1.294446   -0.078161
      5          6           0       -0.690148   -1.160762    0.591851
      6          6           0       -1.511373    0.004305    0.002260
      7          6           0       -2.847748    0.162146    0.734159
      8          8           0       -1.753200   -0.222224   -1.393964
      9          6           0       -0.690003    1.302834    0.064224
     10          6           0        0.687770    1.161756   -0.595092
     11          1           0        2.638225   -0.534566    1.764685
     12          1           0        1.220635    0.456711    2.111045
     13          1           0        2.656690    1.196739    1.380650
     14          1           0        3.196160   -0.832499   -0.578229
     15          1           0        1.247354   -2.117805    0.380534
     16          1           0        0.544915   -1.544258   -1.134518
     17          1           0       -0.580190   -1.008413    1.672649
     18          1           0       -1.255764   -2.095424    0.475422
     19          1           0       -3.436287   -0.761421    0.670907
     20          1           0       -3.432991    0.969050    0.283567
     21          1           0       -2.701142    0.388735    1.795248
     22          1           0       -2.256222   -1.039539   -1.476506
     23          1           0       -0.587761    1.598762    1.115000
     24          1           0       -1.256860    2.096856   -0.433421
     25          1           0        1.254034    2.094400   -0.498200
     26          1           0        0.556830    0.974296   -1.664541
 ---------------------------------------------------------------------

 SCF Done:  E(RB3LYP) =  -464.978713013     A.U. after    1 cycles

 The electronic state is 1-A.
 Alpha  occ. eigenvalues --  -19.12988 -19.12263 -10.23276 -10.22748 -10.17914
 Alpha  occ. eigenvalues --  -10.17356 -10.17317 -10.17156 -10.17056 -10.16511
 Alpha  occ. eigenvalues --   -1.01341  -1.00634  -0.81832  -0.75728  -0.74077
 Alpha  occ. eigenvalues --   -0.70369  -0.65594  -0.61810  -0.57812  -0.53587
 Alpha  occ. eigenvalues --   -0.49282  -0.47302  -0.46069  -0.44677  -0.43926
 Alpha  occ. eigenvalues --   -0.42290  -0.40921  -0.39538  -0.38628  -0.37529
 Alpha  occ. eigenvalues --   -0.37232  -0.36064  -0.35073  -0.33614  -0.32576
 Alpha  occ. eigenvalues --   -0.32164  -0.31093  -0.28837  -0.26241  -0.25494
 Alpha virt. eigenvalues --    0.05822   0.08162   0.10736   0.11420   0.12566
 Alpha virt. eigenvalues --    0.14270   0.14991   0.15393   0.15550   0.16218
 Alpha virt. eigenvalues --    0.17459   0.18464   0.19120   0.19856   0.20180

 Mulliken charges:
               1
     1  C   -0.424039
     2  C    0.372479
     3  O   -0.475267
     4  C   -0.239448
     5  C   -0.238621
     6  C    0.367063
     7  C   -0.433481
     8  O   -0.462886
     9  C   -0.216171
    10  C   -0.217412
    11  H    0.099196
    12  H    0.113094
    13  H    0.121481
    14  H    0.268510
    15  H    0.071502
    16  H    0.109946
    17  H    0.095147
    18  H    0.078799
    19  H    0.099594
    20  H    0.121018
    21  H    0.111758
    22  H    0.273922
    23  H    0.090868
    24  H    0.101310
    25  H    0.089416
    26  H    0.122219
 Sum of Mulliken charges =  -0.00000

 Dipole moment (field-independent basis, Debye):
    X=             -0.7939    Y=             -1.5517    Z=              1.9228  Tot=              2.5952
 Quadrupole moment (field-independent basis, Debye-Ang):
   XX=            -60.7441   YY=            -59.5350   ZZ=            -65.9796
   XY=             -0.6436   XZ=              2.5414   YZ=              1.9709

  Exact polarizability: 103.543  -0.400  88.135   0.229   0.064  83.410
 Approx polarizability: 131.289  -0.076 129.226   0.126   0.048 129.761

                      1                      2                      3
                      A                      A                      A
 Frequencies --     95.7438               180.5172               220.3488
 Red. masses --      3.7093                 2.2781                 1.1994
 Frc consts  --      0.0200                 0.0437                 0.0343
 IR Inten    --      0.1192                 0.0702                 0.8211

                      4                      5                      6
                      A                      A                      A
 Frequencies --    222.0400               240.8504               269.8858
 Red. masses --      3.5204                 1.0450                 1.5717
 Frc consts  --      0.1023                 0.0357                 0.0675
 IR Inten    --      2.8840                 0.2637                22.3415

                      7                      8                      9
                      A                      A                      A
 Frequencies --    276.6594               291.6381               312.5543
 Red. masses --      1.2398                 1.2826                 2.4372
 Frc consts  --      0.0559                 0.0643                 0.1403
 IR Inten    --     81.8498                51.3414                 4.2500

                     10                     11                     12
                      A                      A                      A
 Frequencies --    316.8028               387.4880               411.0300
 Red. masses --      2.2410                 2.4555                 1.9018
 Frc consts  --      0.1325                 0.2172                 0.1893
 IR Inten    --     30.8247                 7.2413                 0.2959

                     13                     14                     15
                      A                      A                      A
 Frequencies --    419.7008               451.8013               461.2755
 Red. masses --      2.0911                 2.7093                 2.6169
 Frc consts  --      0.2170                 0.3258                 0.3281
 IR Inten    --      5.4718                18.0568                 0.1097

                     16                     17                     18
                      A                      A                      A
 Frequencies --    489.2713               509.1092               627.4257
 Red. masses --      3.2586                 3.7823                 2.6779
 Frc consts  --      0.4596                 0.5776                 0.6211
 IR Inten    --      3.5573                 7.6338                 1.5418

                     19                     20                     21
                      A                      A                      A
 Frequencies --    710.1428               731.5316               774.8708
 Red. masses --      3.8442                 2.8069                 1.5484
 Frc consts  --      1.1422                 0.8850                 0.5478
 IR Inten    --      0.8261                 0.5481                 0.1816

                     22                     23                     24
                      A                      A                      A
 Frequencies --    889.6152               904.2555               921.9179
 Red. masses --      1.9011                 2.3042                 2.1259
 Frc consts  --      0.8864                 1.1101                 1.0646
 IR Inten    --      8.6284                17.8929                 7.6104

                     25                     26                     27
                      A                      A                      A
 Frequencies --    949.5916               969.3354               976.4141
 Red. masses --      1.4405                 1.8133                 1.8825
 Frc consts  --      0.7653                 1.0038                 1.0575
 IR Inten    --      2.0048                20.0604                 9.2328

                     28                     29                     30
                      A                      A                      A
 Frequencies --    999.2552              1029.3720              1033.1565
 Red. masses --      1.6753                 1.6125                 2.5591
 Frc consts  --      0.9856                 1.0067                 1.6094
 IR Inten    --      3.7854                 2.9090                 3.6987

                     31                     32                     33
                      A                      A                      A
 Frequencies --   1053.1850              1105.0501              1130.8953
 Red. masses --      1.7425                 1.6844                 1.7077
 Frc consts  --      1.1388                 1.2119                 1.2868
 IR Inten    --     32.3315                33.0787                77.9903

                     34                     35                     36
                      A                      A                      A
 Frequencies --   1147.4801              1164.3697              1202.3098
 Red. masses --      1.6952                 1.6273                 2.1457
 Frc consts  --      1.3151                 1.2999                 1.8275
 IR Inten    --      6.1943                32.5751                 9.1906

                     37                     38                     39
                      A                      A                      A
 Frequencies --   1207.7054              1226.5051              1295.7686
 Red. masses --      2.1167                 1.2783                 1.6108
 Frc consts  --      1.8190                 1.1329                 1.5935
 IR Inten    --     24.8414                19.1609                24.6893

                     40                     41                     42
                      A                      A                      A
 Frequencies --   1311.3981              1338.8353              1347.2470
 Red. masses --      1.6360                 1.3696                 1.3974
 Frc consts  --      1.6577                 1.4464                 1.4944
 IR Inten    --      4.0830                 3.4142                 2.6713

                     43                     44                     45
                      A                      A                      A
 Frequencies --   1366.8979              1375.9825              1396.4319
 Red. masses --      1.6556                 1.4685                 1.7438
 Frc consts  --      1.8225                 1.6382                 2.0035
 IR Inten    --      9.1387                 6.2787                36.0197

                     46                     47                     48
                      A                      A                      A
 Frequencies --   1402.8508              1405.9660              1415.3444
 Red. masses --      1.4502                 1.2968                 1.4346
 Frc consts  --      1.6815                 1.5103                 1.6932
 IR Inten    --      2.0818                21.5193                 2.4115

                     49                     50                     51
                      A                      A                      A
 Frequencies --   1469.0370              1476.9976              1480.8199
 Red. masses --      1.0783                 1.0773                 1.0828
 Frc consts  --      1.3710                 1.3847                 1.3989
 IR Inten    --      0.7973                 2.0608                 5.5090

                     52                     53                     54
                      A                      A                      A
 Frequencies --   1490.8257              1494.3346              1496.5693
 Red. masses --      1.0633                 1.0773                 1.0761
 Frc consts  --      1.3924                 1.4174                 1.4201
 IR Inten    --      2.0760                 6.6016                 2.6863

                     55                     56                     57
                      A                      A                      A
 Frequencies --   1499.6937              1507.1404              3007.0045
 Red. masses --      1.0825                 1.0958                 1.0634
 Frc consts  --      1.4344                 1.4666                 5.6651
 IR Inten    --      1.4648                 4.7275                21.1637

                     58                     59                     60
                      A                      A                      A
 Frequencies --   3019.0249              3023.5221              3026.5259
 Red. masses --      1.0596                 1.0407                 1.0442
 Frc consts  --      5.6901                 5.6051                 5.6352
 IR Inten    --     33.7338                32.7948                41.4615

                     61                     62                     63
                      A                      A                      A
 Frequencies --   3035.1325              3047.4625              3049.6204
 Red. masses --      1.0609                 1.0676                 1.0925
 Frc consts  --      5.7581                 5.8417                 5.9866
 IR Inten    --     24.9239                12.6855                24.7980

                     64                     65                     66
                      A                      A                      A
 Frequencies --   3074.7737              3085.2151              3089.4684
 Red. masses --      1.1011                 1.0960                 1.0980
 Frc consts  --      6.1333                 6.1467                 6.1747
 IR Inten    --     23.5933                13.3648                29.7990

                     67                     68                     69
                      A                      A                      A
 Frequencies --   3092.1057              3100.6441              3112.7228
 Red. masses --      1.0956                 1.0998                 1.1017
 Frc consts  --      6.1720                 6.2296                 6.2894
 IR Inten    --     28.9838                35.1502                27.7405

                     70                     71                     72
                      A                      A                      A
 Frequencies --   3116.1351              3798.8906              3803.5889
 Red. masses --      1.1014                 1.0659                 1.0660
 Frc consts  --      6.3013                 9.0632                 9.0864
 IR Inten    --     28.0916                 7.7893                10.6074

 - Thermochemistry -
 -------------------
 Temperature   298.150 Kelvin.  Pressure   1.00000 Atm.
 Atom     1 has atomic number  6 and mass  12.00000

 Molecular mass:   144.11503 amu.
 Principal axes and moments of inertia in atomic units:
                           1         2         3
     Eigenvalues --   758.998982001.039102008.58718
           X            1.00000   0.00252  -0.00045
           Y            0.00119  -0.30437   0.95255
           Z           -0.00227   0.95255   0.30438
 This molecule is an asymmetric top.
 Rotational symmetry number  1.
 Warning -- assumption of classical behavior for rotation
           may cause significant error
 Rotational temperatures (Kelvin)      0.11412     0.04328     0.04312
 Rotational constants (GHZ):           2.37779     0.90190     0.89851
 Zero-point vibrational energy     612279.1 (Joules/Mol)
                                  146.33823 (Kcal/Mol)
 Warning -- explicit consideration of  17 degrees of freedom as
           vibrations may cause significant error
 Vibrational temperatures:    137.75   259.72   317.03   319.47   346.53
          (Kelvin)            388.31   398.05   419.60   449.70   455.81
                              557.51   591.38   603.86   650.04   663.67
                              703.95   732.49   902.73  1021.74  1052.51
                             1114.87  1279.96  1301.02  1326.43  1366.25
                             1394.66  1404.84  1437.71  1481.04  1486.48
                             1515.30  1589.92  1627.11  1650.97  1675.27
                             1729.86  1737.62  1764.67  1864.32  1886.81
                             1926.29  1938.39  1966.66  1979.73  2009.15
                             2018.39  2022.87  2036.36  2113.62  2125.07
                             2130.57  2144.97  2150.01  2153.23  2157.72
                             2168.44  4326.41  4343.70  4350.17  4354.50
                             4366.88  4384.62  4387.72  4423.91  4438.94
                             4445.06  4448.85  4461.14  4478.51  4483.42
                             5465.76  5472.52

 Zero-point correction=                           0.233205 (Hartree/Particle)
 Thermal correction to Energy=                    0.244071
 Thermal correction to Enthalpy=                  0.245015
 Thermal correction to Gibbs Free Energy=         0.198563
 Sum of electronic and zero-point Energies=           -464.745508
 Sum of electronic and thermal Energies=              -464.734643
 Sum of electronic and thermal Enthalpies=            -464.733698
 Sum of electronic and thermal Free Energies=         -464.780150

                     E (Thermal)             CV                S
                      KCal/Mol        Cal/Mol-Kelvin    Cal/Mol-Kelvin
 Total                  153.157             43.952             97.766
 Electronic               0.000              0.000              0.000
 Translational            0.889              2.981             40.807
 Rotational               0.889              2.981             29.502
 Vibrational            151.379             37.990             27.457
 Vibration     1          0.603              1.952              3.539
 Vibration     2          0.629              1.866              2.323
 Vibration     3          0.647              1.810              1.956
 Vibration     4          0.648              1.808              1.942
 Vibration     5          0.658              1.778              1.797
 Vibration     6          0.674              1.729              1.597
 Vibration     7          0.678              1.717              1.554
 Vibration     8          0.687              1.689              1.464
 Vibration     9          0.701              1.650              1.349
 Vibration    10          0.704              1.642              1.327
 Vibration    11          0.756              1.497              1.010
 Vibration    12          0.775              1.446              0.923
 Vibration    13          0.782              1.427              0.893
 Vibration    14          0.810              1.357              0.790
 Vibration    15          0.819              1.336              0.762
 Vibration    16          0.845              1.274              0.685
 Vibration    17          0.864              1.230              0.636

 Optimization completed.
    -- Stationary point found.
 Normal termination of Gaussian 16 at Tue May 16 00:01:26 2023.
