 Gaussian 16, Revision A.03,
 Gaussian 16:  ES64L-G16RevA.03 25-Dec-2016

 -----------------------------
 # opt freq b3lyp/6-31g(2df,p)
 -----------------------------

 -------------------
 Title Card Required
 -------------------
 Symbolic Z-matrix:
 Charge =  0 Multiplicity = 1

 SCF Done:  E(RB3LYP) =  -351.211642105     A.U. after   17 cycles
 SCF Done:  E(RB3LYP) =  -351.243465020     A.U. after   13 cycles
 SCF Done:  E(RB3LYP) =  -351.271604793     A.U. after   13 cycles
 SCF Done:  E(RB3LYP) =  -351.288291877     A.U. after   13 cycles
 SCF Done:  E(RB3LYP) =  -351.292830049     A.U. after   12 cycles
 SCF Done:  E(RB3LYP) =  -351.293808412     A.U. after   12 cycles
 SCF Done:  E(RB3LYP) =  -351.294104373     A.U. after   10 cycles
 SCF Done:  E(RB3LYP) =  -351.294142772     A.U. after    9 cycles
 SCF Done:  E(RB3LYP) =  -351.294151882     A.U. after    9 cycles
 SCF Done:  E(RB3LYP) =  -351.294153383     A.U. after    7 cycles
 SCF Done:  E(RB3LYP) =  -351.294153529     A.U. after    7 cycles
 Optimization completed.
    -- Stationary point found.
 Normal termination of Gaussian 16 at Mon May 15 16:12:19 2023.

 ----------------------------------------------------------------------
 #N Geom=AllCheck Guess=TCheck SCRF=Check GenChk RB3LYP/6-31G(2df,p) Fr
 eq
 ----------------------------------------------------------------------

 Structure from the checkpoint file:  "CC1qCr[C]2[CH]CCC1C2.chk"
 -------------------
 Title Card Required
 -------------------
 Charge =  0 Multiplicity = 1

                         Standard orientation:
 ---------------------------------------------------------------------
 Center     Atomic      Atomic             Coordinates (Angstroms)
 Number     Number       Type             X           Y           Z
 ---------------------------------------------------------------------
      1          6           0        1.258511    1.642899    0.210520
      2          6           0        1.036794    0.155008   -0.028044
      3          6           0        2.399903   -0.546682   -0.070808
      4          6           0       -0.053438   -0.288778   -1.056018
      5          6           0       -1.083642    0.580074   -1.184440
      6          6           0       -2.194244    0.312186   -0.188572
      7          6           0       -1.373973    0.117874    1.167731
      8          6           0       -0.031463   -0.625197    0.905955
      9          6           0       -0.313691   -1.571404   -0.296544
     10          1           0        1.741953    2.105948   -0.657127
     11          1           0        1.924371    1.790416    1.068381
     12          1           0        0.332957    2.188025    0.401921
     13          1           0        3.031325   -0.088635   -0.839600
     14          1           0        2.334586   -1.613295   -0.291756
     15          1           0        2.918740   -0.435120    0.888233
     16          1           0       -0.860441    1.626956   -1.378181
     17          1           0       -2.795476   -0.576792   -0.390761
     18          1           0       -2.890659    1.150590   -0.104386
     19          1           0       -1.960313   -0.469265    1.884484
     20          1           0       -1.201797    1.094638    1.631613
     21          1           0        0.393894   -1.059933    1.819049
     22          1           0       -1.294506   -2.039822   -0.359686
     23          1           0        0.456822   -2.329584   -0.430857
 ---------------------------------------------------------------------

 SCF Done:  E(RB3LYP) =  -351.294153529     A.U. after    1 cycles

 The electronic state is 1-A.
 Alpha  occ. eigenvalues --  -10.20986 -10.19948 -10.18551 -10.18451 -10.17695
 Alpha  occ. eigenvalues --  -10.17450 -10.17198 -10.17185 -10.16048  -0.88298
 Alpha  occ. eigenvalues --   -0.77367  -0.73209  -0.71246  -0.68206  -0.62412
 Alpha  occ. eigenvalues --   -0.57844  -0.55644  -0.49602  -0.47705  -0.45539
 Alpha  occ. eigenvalues --   -0.43804  -0.42028  -0.40625  -0.39830  -0.38101
 Alpha  occ. eigenvalues --   -0.36868  -0.36247  -0.35333  -0.34517  -0.32509
 Alpha  occ. eigenvalues --   -0.31071  -0.30217  -0.28781  -0.19377
 Alpha virt. eigenvalues --   -0.01609   0.08237   0.10443   0.12260   0.12817
 Alpha virt. eigenvalues --    0.13159   0.13917   0.15600   0.15932   0.16884
 Alpha virt. eigenvalues --    0.17705   0.17877   0.18746   0.19315   0.20500

 Mulliken charges:
               1
     1  C   -0.458561
     2  C    0.310240
     3  C   -0.449244
     4  C    0.042713
     5  C   -0.136738
     6  C   -0.249562
     7  C   -0.220264
     8  C   -0.020052
     9  C   -0.271213
    10  H    0.122047
    11  H    0.110194
    12  H    0.115122
    13  H    0.118658
    14  H    0.117033
    15  H    0.111832
    16  H    0.083085
    17  H    0.115038
    18  H    0.095891
    19  H    0.098750
    20  H    0.103465
    21  H    0.066460
    22  H    0.095827
    23  H    0.099278
 Sum of Mulliken charges =  -0.00000

 Dipole moment (field-independent basis, Debye):
    X=              0.2497    Y=              0.0253    Z=              1.3716  Tot=              1.3944
 Quadrupole moment (field-independent basis, Debye-Ang):
   XX=            -55.3878   YY=            -55.1618   ZZ=            -59.5341
   XY=              0.2484   XZ=             -1.0055   YZ=             -0.3774

  Exact polarizability: 106.707  -4.165  89.592   1.692  -2.886  79.537
 Approx polarizability: 157.538 -15.749 141.207   5.474  -6.483 131.562

                      1                      2                      3
                      A                      A                      A
 Frequencies --    180.5124               203.4398               218.3833
 Red. masses --      1.1490                 1.2819                 2.5745
 Frc consts  --      0.0221                 0.0313                 0.0723
 IR Inten    --      0.0297                 0.0474                 0.5656

                      4                      5                      6
                      A                      A                      A
 Frequencies --    230.2862               301.9097               371.3844
 Red. masses --      1.8555                 1.7424                 2.2334
 Frc consts  --      0.0580                 0.0936                 0.1815
 IR Inten    --      0.6340                 0.2665                 0.2401

                      7                      8                      9
                      A                      A                      A
 Frequencies --    398.9169               454.8921               477.1711
 Red. masses --      2.2540                 2.7445                 2.7085
 Frc consts  --      0.2113                 0.3346                 0.3634
 IR Inten    --      1.5792                 0.7568                10.1065

                     10                     11                     12
                      A                      A                      A
 Frequencies --    499.4782               540.2541               585.8381
 Red. masses --      2.6246                 2.9761                 2.8474
 Frc consts  --      0.3858                 0.5118                 0.5758
 IR Inten    --      0.0581                 8.0930                 1.2981

                     13                     14                     15
                      A                      A                      A
 Frequencies --    633.7877               697.0541               762.6891
 Red. masses --      3.3588                 2.6311                 2.9217
 Frc consts  --      0.7949                 0.7532                 1.0013
 IR Inten    --     25.7668                 3.3928                49.5183

                     16                     17                     18
                      A                      A                      A
 Frequencies --    794.2233               853.6647               880.4541
 Red. masses --      3.5895                 1.6359                 1.9309
 Frc consts  --      1.3341                 0.7024                 0.8819
 IR Inten    --      2.9868                18.7902                16.1417

                     19                     20                     21
                      A                      A                      A
 Frequencies --    887.2570               909.6089               950.1497
 Red. masses --      2.0999                 1.9799                 1.5437
 Frc consts  --      0.9740                 0.9652                 0.8211
 IR Inten    --      1.9125                14.6338                 6.1098

                     22                     23                     24
                      A                      A                      A
 Frequencies --    961.7650               967.2399               992.0194
 Red. masses --      1.8017                 1.8166                 2.0487
 Frc consts  --      0.9819                 1.0013                 1.1879
 IR Inten    --      8.9142                 1.3106                 1.8617

                     25                     26                     27
                      A                      A                      A
 Frequencies --   1006.2467              1022.0261              1057.9800
 Red. masses --      1.3747                 1.8286                 1.2413
 Frc consts  --      0.8201                 1.1254                 0.8186
 IR Inten    --      0.2697                 0.8928                 3.0310

                     28                     29                     30
                      A                      A                      A
 Frequencies --   1088.4386              1126.0620              1164.2478
 Red. masses --      1.2908                 2.1212                 1.5148
 Frc consts  --      0.9010                 1.5847                 1.2098
 IR Inten    --      0.5218                 5.2208                 8.1080

                     31                     32                     33
                      A                      A                      A
 Frequencies --   1180.4285              1186.5024              1212.4461
 Red. masses --      1.4527                 1.6526                 1.9650
 Frc consts  --      1.1927                 1.3707                 1.7019
 IR Inten    --      2.3826                 3.0407                12.7817

                     34                     35                     36
                      A                      A                      A
 Frequencies --   1227.8041              1263.7114              1274.3057
 Red. masses --      1.5228                 2.3550                 1.4716
 Frc consts  --      1.3525                 2.2158                 1.4079
 IR Inten    --      2.4916                12.0606                14.7654

                     37                     38                     39
                      A                      A                      A
 Frequencies --   1295.8420              1311.5917              1347.2140
 Red. masses --      1.3360                 1.4188                 1.4073
 Frc consts  --      1.3218                 1.4380                 1.5050
 IR Inten    --      1.6663                 0.2048                 0.2051

                     40                     41                     42
                      A                      A                      A
 Frequencies --   1402.9363              1419.0445              1478.0972
 Red. masses --      1.2759                 1.2208                 1.0712
 Frc consts  --      1.4796                 1.4484                 1.3789
 IR Inten    --      7.3946                 3.3653                 0.3033

                     43                     44                     45
                      A                      A                      A
 Frequencies --   1478.5714              1483.9422              1494.4595
 Red. masses --      1.0726                 1.0632                 1.0713
 Frc consts  --      1.3816                 1.3794                 1.4097
 IR Inten    --      0.9478                 0.8496                 6.5968

                     46                     47                     48
                      A                      A                      A
 Frequencies --   1502.4753              1509.8551              1534.5366
 Red. masses --      1.0677                 1.0517                 1.0978
 Frc consts  --      1.4201                 1.4126                 1.5231
 IR Inten    --      0.5911                 3.7049                 6.0796

                     49                     50                     51
                      A                      A                      A
 Frequencies --   1588.6085              3023.6274              3029.5806
 Red. masses --      6.4965                 1.0781                 1.0394
 Frc consts  --      9.6596                 5.8073                 5.6207
 IR Inten    --      5.8157                19.3502                13.4953

                     52                     53                     54
                      A                      A                      A
 Frequencies --   3035.0173              3040.3910              3064.6647
 Red. masses --      1.0420                 1.0635                 1.0609
 Frc consts  --      5.6552                 5.7921                 5.8705
 IR Inten    --     43.3781                62.5314                40.0359

                     55                     56                     57
                      A                      A                      A
 Frequencies --   3075.0551              3085.5381              3092.1178
 Red. masses --      1.1018                 1.1002                 1.0998
 Frc consts  --      6.1386                 6.1717                 6.1953
 IR Inten    --     23.3732                 1.5197                36.9211

                     58                     59                     60
                      A                      A                      A
 Frequencies --   3097.7458              3106.1283              3125.4528
 Red. masses --      1.0717                 1.0931                 1.0958
 Frc consts  --      6.0591                 6.2138                 6.3067
 IR Inten    --      3.9752                30.6037                13.4631

                     61                     62                     63
                      A                      A                      A
 Frequencies --   3127.7381              3139.2743              3150.1055
 Red. masses --      1.0948                 1.0891                 1.1067
 Frc consts  --      6.3102                 6.3235                 6.4706
 IR Inten    --     46.0239                36.5419                24.9875

 - Thermochemistry -
 -------------------
 Temperature   298.150 Kelvin.  Pressure   1.00000 Atm.
 Atom     1 has atomic number  6 and mass  12.00000

 Molecular mass:   122.10955 amu.
 Principal axes and moments of inertia in atomic units:
                           1         2         3
     Eigenvalues --   652.082101161.171081286.55289
           X            0.99996   0.00152  -0.00905
           Y           -0.00148   0.99999   0.00493
           Z            0.00906  -0.00492   0.99995
 This molecule is an asymmetric top.
 Rotational symmetry number  1.
 Warning -- assumption of classical behavior for rotation
           may cause significant error
 Rotational temperatures (Kelvin)      0.13283     0.07459     0.06732
 Rotational constants (GHZ):           2.76766     1.55424     1.40277
 Zero-point vibrational energy     541921.4 (Joules/Mol)
                                  129.52233 (Kcal/Mol)
 Warning -- explicit consideration of  12 degrees of freedom as
           vibrations may cause significant error
 Vibrational temperatures:    259.72   292.70   314.20   331.33   434.38
          (Kelvin)            534.34   573.95   654.49   686.54   718.64
                              777.31   842.89   911.88  1002.91  1097.34
                             1142.71  1228.23  1266.78  1276.56  1308.72
                             1367.05  1383.77  1391.64  1427.29  1447.76
                             1470.47  1522.20  1566.02  1620.15  1675.09
                             1698.37  1707.11  1744.44  1766.54  1818.20
                             1833.44  1864.43  1887.09  1938.34  2018.51
                             2041.69  2126.65  2127.33  2135.06  2150.19
                             2161.73  2172.34  2207.86  2285.65  4350.33
                             4358.89  4366.71  4374.44  4409.37  4424.32
                             4439.40  4448.87  4456.97  4469.03  4496.83
                             4500.12  4516.72  4532.30

 Zero-point correction=                           0.206407 (Hartree/Particle)
 Thermal correction to Energy=                    0.214758
 Thermal correction to Enthalpy=                  0.215702
 Thermal correction to Gibbs Free Energy=         0.174540
 Sum of electronic and zero-point Energies=           -351.087747
 Sum of electronic and thermal Energies=              -351.079396
 Sum of electronic and thermal Enthalpies=            -351.078452
 Sum of electronic and thermal Free Energies=         -351.119614

                     E (Thermal)             CV                S
                      KCal/Mol        Cal/Mol-Kelvin    Cal/Mol-Kelvin
 Total                  134.762             35.168             86.632
 Electronic               0.000              0.000              0.000
 Translational            0.889              2.981             40.313
 Rotational               0.889              2.981             28.368
 Vibrational            132.985             29.207             17.951
 Vibration     1          0.629              1.866              2.323
 Vibration     2          0.639              1.835              2.102
 Vibration     3          0.646              1.813              1.972
 Vibration     4          0.652              1.795              1.877
 Vibration     5          0.694              1.670              1.406
 Vibration     6          0.743              1.531              1.074
 Vibration     7          0.765              1.472              0.967
 Vibration     8          0.813              1.350              0.781
 Vibration     9          0.834              1.301              0.718
 Vibration    10          0.855              1.251              0.659
 Vibration    11          0.895              1.161              0.565
 Vibration    12          0.943              1.062              0.475

 Optimization completed.
    -- Stationary point found.
 Normal termination of Gaussian 16 at Mon May 15 17:00:15 2023.
