 Gaussian 16, Revision A.03,
 Gaussian 16:  ES64L-G16RevA.03 25-Dec-2016

 -----------------------------
 # opt freq b3lyp/6-31g(2df,p)
 -----------------------------

 -------------------
 Title Card Required
 -------------------
 Symbolic Z-matrix:
 Charge =  0 Multiplicity = 1

 SCF Done:  E(RB3LYP) =  -784.860404442     A.U. after   15 cycles
 SCF Done:  E(RB3LYP) =  -784.874276191     A.U. after   13 cycles
 SCF Done:  E(RB3LYP) =  -784.876973797     A.U. after   12 cycles
 SCF Done:  E(RB3LYP) =  -784.877302366     A.U. after   12 cycles
 SCF Done:  E(RB3LYP) =  -784.877835614     A.U. after   12 cycles
 SCF Done:  E(RB3LYP) =  -784.879360587     A.U. after   12 cycles
 SCF Done:  E(RB3LYP) =  -784.882355214     A.U. after   13 cycles
 SCF Done:  E(RB3LYP) =  -784.884933319     A.U. after   13 cycles
 SCF Done:  E(RB3LYP) =  -784.886160775     A.U. after   12 cycles
 SCF Done:  E(RB3LYP) =  -784.887502529     A.U. after   12 cycles
 SCF Done:  E(RB3LYP) =  -784.892998170     A.U. after   11 cycles
 SCF Done:  E(RB3LYP) =  -784.893313583     A.U. after   11 cycles
 SCF Done:  E(RB3LYP) =  -784.893485909     A.U. after   11 cycles
 SCF Done:  E(RB3LYP) =  -784.893499083     A.U. after   10 cycles
 SCF Done:  E(RB3LYP) =  -784.893515852     A.U. after   10 cycles
 SCF Done:  E(RB3LYP) =  -784.893516645     A.U. after    8 cycles
 SCF Done:  E(RB3LYP) =  -784.893517758     A.U. after    8 cycles
 SCF Done:  E(RB3LYP) =  -784.893518295     A.U. after    7 cycles
 SCF Done:  E(RB3LYP) =  -784.893518346     A.U. after    6 cycles
 Optimization completed.
    -- Stationary point found.

 The electronic state is 1-A.
 Alpha  occ. eigenvalues --  -19.19801 -19.17486 -19.11314 -14.31558 -10.30172
 Alpha  occ. eigenvalues --  -10.27547 -10.24731 -10.21974 -10.20740 -10.20494
 Alpha  occ. eigenvalues --  -10.19409 -10.19323 -10.19140 -10.18831 -10.18325
 Alpha  occ. eigenvalues --  -10.17831 -10.15787  -1.09701  -1.06410  -1.03549
 Alpha  occ. eigenvalues --   -0.92213  -0.86144  -0.82294  -0.77751  -0.75158
 Alpha  occ. eigenvalues --   -0.73788  -0.71043  -0.65593  -0.63974  -0.62683
 Alpha  occ. eigenvalues --   -0.60550  -0.58006  -0.54815  -0.54167  -0.52721
 Alpha  occ. eigenvalues --   -0.50341  -0.48636  -0.46705  -0.45740  -0.44340
 Alpha  occ. eigenvalues --   -0.44061  -0.43216  -0.42781  -0.42003  -0.41232
 Alpha  occ. eigenvalues --   -0.40871  -0.39914  -0.39388  -0.37769  -0.37531
 Alpha  occ. eigenvalues --   -0.36953  -0.35773  -0.34315  -0.34032  -0.33170
 Alpha  occ. eigenvalues --   -0.32365  -0.31964  -0.28077  -0.27338  -0.25573
 Alpha  occ. eigenvalues --   -0.23763  -0.22205
 Alpha virt. eigenvalues --   -0.03231  -0.00850   0.00635   0.04772   0.05146
 Alpha virt. eigenvalues --    0.06633   0.07624   0.10363   0.11477   0.12092
 Alpha virt. eigenvalues --    0.13308   0.14575   0.15224   0.16290   0.17217

 Mulliken charges:
               1
     1  C   -0.405891
     2  C   -0.189558
     3  C    0.008290
     4  C    0.247560
     5  C   -0.172656
     6  C   -0.258257
     7  C    0.378957
     8  O   -0.440873
     9  C   -0.190988
    10  C   -0.196065
    11  C   -0.253265
    12  C   -0.372025
    13  C    0.415682
    14  O   -0.372413
    15  N   -0.278108
    16  C    0.337391
    17  O   -0.328414
    18  H    0.104750
    19  H    0.117593
    20  H    0.146740
    21  H    0.080461
    22  H    0.105225
    23  H    0.093017
    24  H    0.084106
    25  H    0.296768
    26  H    0.109795
    27  H    0.130588
    28  H    0.108169
    29  H    0.119237
    30  H    0.145357
    31  H    0.122762
    32  H    0.306063
 Sum of Mulliken charges =  -0.00000

 Dipole moment (field-independent basis, Debye):
    X=             -2.2400    Y=             -2.7091    Z=              6.2468  Tot=              7.1680
 Quadrupole moment (field-independent basis, Debye-Ang):
   XX=            -96.8892   YY=            -95.2711   ZZ=            -98.5379
   XY=             -4.8937   XZ=              5.9463   YZ=             -4.6216

 Normal termination of Gaussian 16 at Tue May 16 02:25:59 2023.

 ----------------------------------------------------------------------
 #N Geom=AllCheck Guess=TCheck SCRF=Check GenChk RB3LYP/6-31G(2df,p) Fr
 eq
 ----------------------------------------------------------------------

 Structure from the checkpoint file:  "CCC1qc2cccqOrcc2rCCCqOrdNC1dO.chk"
 -------------------
 Title Card Required
 -------------------
 Charge =  0 Multiplicity = 1

                         Standard orientation:
 ---------------------------------------------------------------------
 Center     Atomic      Atomic             Coordinates (Angstroms)
 Number     Number       Type             X           Y           Z
 ---------------------------------------------------------------------
      1          6           0        0.193155    3.228024   -0.310563
      2          6           0        0.921063    2.336521    0.699699
      3          6           0        0.901088    0.813344    0.407406
      4          6           0       -0.532295    0.314926    0.185625
      5          6           0       -1.436141    0.261525    1.252837
      6          6           0       -2.756453   -0.139106    1.074292
      7          6           0       -3.210932   -0.498010   -0.194949
      8          8           0       -4.489432   -0.902300   -0.435567
      9          6           0       -2.330534   -0.444990   -1.274659
     10          6           0       -1.015144   -0.042384   -1.079968
     11          6           0        1.577680    0.073377    1.595331
     12          6           0        1.660323   -1.433402    1.342155
     13          6           0        1.987079   -1.729339   -0.102828
     14          8           0        2.178881   -3.022754   -0.420267
     15          7           0        2.076814   -0.881991   -1.048363
     16          6           0        1.817646    0.476838   -0.793915
     17          8           0        2.318478    1.326628   -1.492139
     18          1           0        0.268221    4.276073   -0.003272
     19          1           0       -0.869199    2.976445   -0.377375
     20          1           0        0.637535    3.131409   -1.302211
     21          1           0        0.481615    2.485431    1.694816
     22          1           0        1.968231    2.650587    0.768281
     23          1           0       -1.118143    0.548337    2.250143
     24          1           0       -3.434765   -0.169662    1.923358
     25          1           0       -4.988713   -0.877566    0.387267
     26          1           0       -2.689763   -0.719445   -2.259783
     27          1           0       -0.355210   -0.008455   -1.939732
     28          1           0        1.042607    0.268459    2.528612
     29          1           0        2.586519    0.482472    1.724330
     30          1           0        0.695367   -1.911624    1.557048
     31          1           0        2.403182   -1.908797    1.994792
     32          1           0        2.112191   -3.566263    0.373278
 ---------------------------------------------------------------------

 SCF Done:  E(RB3LYP) =  -784.893518346     A.U. after    1 cycles
