 Gaussian 16, Revision A.03,
 Gaussian 16:  ES64L-G16RevA.03 25-Dec-2016

 -----------------------------
 # opt freq b3lyp/6-31g(2df,p)
 -----------------------------

 -------------------
 Title Card Required
 -------------------
 Symbolic Z-matrix:
 Charge =  0 Multiplicity = 1

 SCF Done:  E(RB3LYP) =  -430.019931190     A.U. after   13 cycles
 SCF Done:  E(RB3LYP) =  -430.026450182     A.U. after   11 cycles
 SCF Done:  E(RB3LYP) =  -430.027126266     A.U. after   10 cycles
 SCF Done:  E(RB3LYP) =  -430.027317626     A.U. after   10 cycles
 SCF Done:  E(RB3LYP) =  -430.028025220     A.U. after   11 cycles
 SCF Done:  E(RB3LYP) =  -430.024556463     A.U. after   12 cycles
 SCF Done:  E(RB3LYP) =  -430.028779308     A.U. after   10 cycles
 SCF Done:  E(RB3LYP) =  -430.029207261     A.U. after   10 cycles
 SCF Done:  E(RB3LYP) =  -430.029889694     A.U. after   10 cycles
 SCF Done:  E(RB3LYP) =  -430.030546735     A.U. after   10 cycles
 SCF Done:  E(RB3LYP) =  -430.031324892     A.U. after   11 cycles
 SCF Done:  E(RB3LYP) =  -430.032000568     A.U. after   11 cycles
 SCF Done:  E(RB3LYP) =  -430.032879630     A.U. after   10 cycles
 SCF Done:  E(RB3LYP) =  -430.033653541     A.U. after   10 cycles
 SCF Done:  E(RB3LYP) =  -430.033761706     A.U. after    9 cycles
 SCF Done:  E(RB3LYP) =  -430.033785252     A.U. after    9 cycles
 SCF Done:  E(RB3LYP) =  -430.033788471     A.U. after    7 cycles
 SCF Done:  E(RB3LYP) =  -430.033788801     A.U. after    6 cycles
 SCF Done:  E(RB3LYP) =  -430.033788925     A.U. after    6 cycles
 Optimization completed.
    -- Stationary point found.
 Normal termination of Gaussian 16 at Mon May 15 19:17:24 2023.

 ----------------------------------------------------------------------
 #N Geom=AllCheck Guess=TCheck SCRF=Check GenChk RB3LYP/6-31G(2df,p) Fr
 eq
 ----------------------------------------------------------------------

 Structure from the checkpoint file:  "CCC1dCCqCrqCrCCqCrdC1.chk"
 -------------------
 Title Card Required
 -------------------
 Charge =  0 Multiplicity = 1

                         Standard orientation:
 ---------------------------------------------------------------------
 Center     Atomic      Atomic             Coordinates (Angstroms)
 Number     Number       Type             X           Y           Z
 ---------------------------------------------------------------------
      1          6           0       -3.598226    0.117403   -0.084639
      2          6           0       -2.525551   -0.966604    0.015373
      3          6           0       -1.087882   -0.495592    0.009040
      4          6           0       -0.709246    0.788226   -0.073332
      5          6           0        0.746271    1.215882    0.000085
      6          6           0        1.095074    1.502702    1.479891
      7          6           0        0.966929    2.495771   -0.824521
      8          6           0        1.653390    0.089936   -0.546785
      9          6           0        1.236254   -1.299246   -0.116621
     10          6           0        2.298312   -2.356617   -0.054752
     11          6           0       -0.061058   -1.541243    0.117799
     12          1           0       -4.596743   -0.329513   -0.074508
     13          1           0       -3.499500    0.693521   -1.010285
     14          1           0       -3.537641    0.819154    0.753389
     15          1           0       -2.656857   -1.685771   -0.806384
     16          1           0       -2.687846   -1.556189    0.929867
     17          1           0       -1.447033    1.583833   -0.124882
     18          1           0        0.429663    2.266180    1.896087
     19          1           0        2.125965    1.865992    1.573044
     20          1           0        0.992555    0.598594    2.086907
     21          1           0        0.356290    3.320403   -0.440107
     22          1           0        0.698654    2.340785   -1.874727
     23          1           0        2.015581    2.811570   -0.785131
     24          1           0        2.692413    0.284848   -0.251754
     25          1           0        1.646826    0.117891   -1.648811
     26          1           0        3.062202   -2.110306    0.694676
     27          1           0        2.827150   -2.441321   -1.014094
     28          1           0        1.881812   -3.337191    0.191817
     29          1           0       -0.389100   -2.546177    0.375666
 ---------------------------------------------------------------------

 SCF Done:  E(RB3LYP) =  -430.033788925     A.U. after    1 cycles

 The electronic state is 1-A.
 Alpha  occ. eigenvalues --  -10.18994 -10.18263 -10.18004 -10.17732 -10.17602
 Alpha  occ. eigenvalues --  -10.17547 -10.17030 -10.16718 -10.16566 -10.16489
 Alpha  occ. eigenvalues --  -10.16197  -0.84528  -0.78674  -0.77781  -0.72090
 Alpha  occ. eigenvalues --   -0.68072  -0.67646  -0.66401  -0.62914  -0.55576
 Alpha  occ. eigenvalues --   -0.54109  -0.48468  -0.46144  -0.45173  -0.44162
 Alpha  occ. eigenvalues --   -0.43100  -0.41846  -0.40400  -0.40115  -0.39751
 Alpha  occ. eigenvalues --   -0.38246  -0.37549  -0.36392  -0.35317  -0.34970
 Alpha  occ. eigenvalues --   -0.34551  -0.33873  -0.32727  -0.30540  -0.29622
 Alpha  occ. eigenvalues --   -0.27803  -0.19692
 Alpha virt. eigenvalues --   -0.00754   0.08353   0.08726   0.10866   0.11782
 Alpha virt. eigenvalues --    0.13105   0.13649   0.14363   0.15929   0.16152
 Alpha virt. eigenvalues --    0.16427   0.16842   0.17320   0.17608   0.17722

 Mulliken charges:
               1
     1  C   -0.392735
     2  C   -0.264435
     3  C    0.303585
     4  C   -0.214913
     5  C    0.223825
     6  C   -0.405154
     7  C   -0.420827
     8  C   -0.335272
     9  C    0.288038
    10  C   -0.482847
    11  C   -0.218989
    12  H    0.108221
    13  H    0.120414
    14  H    0.120051
    15  H    0.106988
    16  H    0.105685
    17  H    0.074590
    18  H    0.107534
    19  H    0.101751
    20  H    0.120094
    21  H    0.107517
    22  H    0.110408
    23  H    0.106557
    24  H    0.092778
    25  H    0.101373
    26  H    0.123237
    27  H    0.122870
    28  H    0.119197
    29  H    0.070461
 Sum of Mulliken charges =  -0.00000

 Dipole moment (field-independent basis, Debye):
    X=              0.2282    Y=             -0.2351    Z=             -0.0753  Tot=              0.3362
 Quadrupole moment (field-independent basis, Debye-Ang):
   XX=            -67.0904   YY=            -68.4034   ZZ=            -70.9139
   XY=              0.0254   XZ=             -0.4396   YZ=             -0.1626

  Exact polarizability: 138.559  -0.725 128.725  -2.476  -1.358  88.124
 Approx polarizability: 193.495   0.705 189.129  -5.978  -2.729 135.932

                      1                      2                      3
                      A                      A                      A
 Frequencies --     68.2574                99.6060               128.5754
 Red. masses --      2.3000                 2.4772                 2.3150
 Frc consts  --      0.0063                 0.0145                 0.0225
 IR Inten    --      0.0406                 0.0367                 0.2618

                      4                      5                      6
                      A                      A                      A
 Frequencies --    161.1305               177.9890               213.6220
 Red. masses --      2.0108                 2.1215                 1.3299
 Frc consts  --      0.0308                 0.0396                 0.0358
 IR Inten    --      1.2891                 0.3992                 0.4855

                      7                      8                      9
                      A                      A                      A
 Frequencies --    243.2804               251.9626               266.3039
 Red. masses --      1.0438                 1.8975                 1.1419
 Frc consts  --      0.0364                 0.0710                 0.0477
 IR Inten    --      0.0279                 0.1264                 0.3260

                     10                     11                     12
                      A                      A                      A
 Frequencies --    284.2276               305.6877               339.0606
 Red. masses --      1.2397                 2.1040                 2.4093
 Frc consts  --      0.0590                 0.1158                 0.1632
 IR Inten    --      0.0584                 0.1148                 0.0612

                     13                     14                     15
                      A                      A                      A
 Frequencies --    373.9631               402.8819               438.9635
 Red. masses --      2.6047                 2.3708                 2.8101
 Frc consts  --      0.2146                 0.2267                 0.3190
 IR Inten    --      0.2155                 0.6231                 1.7478

                     16                     17                     18
                      A                      A                      A
 Frequencies --    455.0723               499.9613               513.3331
 Red. masses --      2.8837                 3.6741                 3.1998
 Frc consts  --      0.3519                 0.5411                 0.4968
 IR Inten    --      1.2121                 1.0867                 0.2693

                     19                     20                     21
                      A                      A                      A
 Frequencies --    583.2889               601.3555               774.4464
 Red. masses --      2.9970                 2.4146                 1.2416
 Frc consts  --      0.6008                 0.5145                 0.4387
 IR Inten    --      0.9194                 1.7689                 0.5213

                     22                     23                     24
                      A                      A                      A
 Frequencies --    804.5212               856.6935               863.2732
 Red. masses --      2.8349                 1.6094                 1.7843
 Frc consts  --      1.0811                 0.6959                 0.7835
 IR Inten    --      0.1930                 3.7967                12.4392

                     25                     26                     27
                      A                      A                      A
 Frequencies --    881.9900               911.0167               923.0395
 Red. masses --      1.9351                 1.7691                 3.1221
 Frc consts  --      0.8869                 0.8651                 1.5673
 IR Inten    --      3.2152                 2.0209                 4.9934

                     28                     29                     30
                      A                      A                      A
 Frequencies --    937.0256               948.3206               993.3528
 Red. masses --      1.6213                 1.6509                 1.8637
 Frc consts  --      0.8387                 0.8748                 1.0835
 IR Inten    --      1.5510                 3.9875                 2.3301

                     31                     32                     33
                      A                      A                      A
 Frequencies --   1005.0122              1027.4175              1043.3958
 Red. masses --      1.8939                 1.3238                 1.8311
 Frc consts  --      1.1271                 0.8233                 1.1745
 IR Inten    --      0.6202                 1.5212                 2.1197

                     34                     35                     36
                      A                      A                      A
 Frequencies --   1056.0399              1086.3386              1107.0292
 Red. masses --      1.4854                 1.8611                 1.5866
 Frc consts  --      0.9760                 1.2940                 1.1456
 IR Inten    --      0.7440                 0.1597                 0.0320

                     37                     38                     39
                      A                      A                      A
 Frequencies --   1137.4749              1159.3917              1169.8809
 Red. masses --      1.7940                 1.8711                 1.9080
 Frc consts  --      1.3676                 1.4818                 1.5386
 IR Inten    --      1.0321                 2.0623                 5.1571

                     40                     41                     42
                      A                      A                      A
 Frequencies --   1243.4476              1246.1901              1291.8589
 Red. masses --      2.4901                 2.7357                 1.1759
 Frc consts  --      2.2685                 2.5032                 1.1563
 IR Inten    --      4.0089                 1.6207                 0.1245

                     43                     44                     45
                      A                      A                      A
 Frequencies --   1299.5363              1302.7657              1351.5616
 Red. masses --      1.7746                 1.3535                 1.5765
 Frc consts  --      1.7657                 1.3534                 1.6968
 IR Inten    --      2.3477                 8.8684                 8.4275

                     46                     47                     48
                      A                      A                      A
 Frequencies --   1380.8971              1391.5687              1399.8403
 Red. masses --      1.7717                 1.2554                 1.6337
 Frc consts  --      1.9905                 1.4323                 1.8862
 IR Inten    --      3.6090                 5.8046                 1.5906

                     49                     50                     51
                      A                      A                      A
 Frequencies --   1410.6242              1411.4751              1420.5284
 Red. masses --      1.2812                 1.2788                 1.3841
 Frc consts  --      1.5020                 1.5010                 1.6456
 IR Inten    --      2.1809                 0.9952                 1.2804

                     52                     53                     54
                      A                      A                      A
 Frequencies --   1464.2984              1476.3898              1476.8985
 Red. masses --      1.0833                 1.0782                 1.0473
 Frc consts  --      1.3685                 1.3847                 1.3459
 IR Inten    --      1.3627                 1.8473                 6.1066

                     55                     56                     57
                      A                      A                      A
 Frequencies --   1484.1185              1487.6116              1489.2457
 Red. masses --      1.0470                 1.0557                 1.0734
 Frc consts  --      1.3587                 1.3764                 1.4026
 IR Inten    --      0.6346                 1.4105                 6.8650

                     58                     59                     60
                      A                      A                      A
 Frequencies --   1496.9298              1499.8800              1508.1835
 Red. masses --      1.0399                 1.0549                 1.0597
 Frc consts  --      1.3729                 1.3982                 1.4202
 IR Inten    --      4.8094                 2.5789                 8.4317

                     61                     62                     63
                      A                      A                      A
 Frequencies --   1508.5886              1672.2052              1728.9197
 Red. masses --      1.0559                 7.5739                 6.6343
 Frc consts  --      1.4158                12.4781                11.6841
 IR Inten    --      1.2007                 4.1323                16.3964

                     64                     65                     66
                      A                      A                      A
 Frequencies --   2972.2305              2996.4216              3006.8519
 Red. masses --      1.0686                 1.0599                 1.0391
 Frc consts  --      5.5620                 5.6071                 5.5350
 IR Inten    --     30.9390                29.9794                43.7607

                     67                     68                     69
                      A                      A                      A
 Frequencies --   3016.3928              3018.9716              3023.8318
 Red. masses --      1.0993                 1.0360                 1.0370
 Frc consts  --      5.8929                 5.5631                 5.5868
 IR Inten    --     17.6819                23.3105                32.9626

                     70                     71                     72
                      A                      A                      A
 Frequencies --   3036.2987              3037.1771              3049.9722
 Red. masses --      1.0357                 1.0882                 1.0978
 Frc consts  --      5.6255                 5.9144                 6.0168
 IR Inten    --     23.5233                26.8247                22.6189

                     73                     74                     75
                      A                      A                      A
 Frequencies --   3086.1638              3091.5231              3096.6005
 Red. masses --      1.0999                 1.1001                 1.1015
 Frc consts  --      6.1723                 6.1946                 6.2231
 IR Inten    --      1.9874                49.2212                30.3388

                     76                     77                     78
                      A                      A                      A
 Frequencies --   3104.0369              3106.4590              3106.5312
 Red. masses --      1.1016                 1.1000                 1.0998
 Frc consts  --      6.2537                 6.2544                 6.2533
 IR Inten    --     30.4914                 4.9988                51.0744

                     79                     80                     81
                      A                      A                      A
 Frequencies --   3109.7985              3143.7510              3163.6535
 Red. masses --      1.1011                 1.0890                 1.0886
 Frc consts  --      6.2741                 6.3410                 6.4195
 IR Inten    --     20.8227                27.9740                11.3777

 - Thermochemistry -
 -------------------
 Temperature   298.150 Kelvin.  Pressure   1.00000 Atm.
 Atom     1 has atomic number  6 and mass  12.00000

 Molecular mass:   150.14085 amu.
 Principal axes and moments of inertia in atomic units:
                           1         2         3
     Eigenvalues --  1389.054562016.060852969.00012
           X            0.99998  -0.00629   0.00068
           Y            0.00629   0.99998  -0.00285
           Z           -0.00066   0.00285   1.00000
 This molecule is an asymmetric top.
 Rotational symmetry number  1.
 Warning -- assumption of classical behavior for rotation
           may cause significant error
 Rotational temperatures (Kelvin)      0.06235     0.04296     0.02917
 Rotational constants (GHZ):           1.29926     0.89518     0.60786
 Zero-point vibrational energy     686084.7 (Joules/Mol)
                                  163.97819 (Kcal/Mol)
 Warning -- explicit consideration of  20 degrees of freedom as
           vibrations may cause significant error
 Vibrational temperatures:     98.21   143.31   184.99   231.83   256.09
          (Kelvin)            307.35   350.03   362.52   383.15   408.94
                              439.82   487.83   538.05   579.66   631.57
                              654.75   719.33   738.57   839.22   865.22
                             1114.26  1157.53  1232.59  1242.06  1268.99
                             1310.75  1328.05  1348.17  1364.42  1429.21
                             1445.99  1478.22  1501.21  1519.41  1563.00
                             1592.77  1636.57  1668.11  1683.20  1789.04
                             1792.99  1858.70  1869.74  1874.39  1944.60
                             1986.80  2002.16  2014.06  2029.57  2030.80
                             2043.82  2106.80  2124.20  2124.93  2135.32
                             2140.34  2142.69  2153.75  2157.99  2169.94
                             2170.52  2405.93  2487.53  4276.38  4311.18
                             4326.19  4339.92  4343.63  4350.62  4368.56
                             4369.82  4388.23  4440.30  4448.01  4455.32
                             4466.02  4469.50  4469.61  4474.31  4523.16
                             4551.79

 Zero-point correction=                           0.261316 (Hartree/Particle)
 Thermal correction to Energy=                    0.273724
 Thermal correction to Enthalpy=                  0.274668
 Thermal correction to Gibbs Free Energy=         0.224047
 Sum of electronic and zero-point Energies=           -429.772473
 Sum of electronic and thermal Energies=              -429.760065
 Sum of electronic and thermal Enthalpies=            -429.759121
 Sum of electronic and thermal Free Energies=         -429.809742

                     E (Thermal)             CV                S
                      KCal/Mol        Cal/Mol-Kelvin    Cal/Mol-Kelvin
 Total                  171.765             48.168            106.541
 Electronic               0.000              0.000              0.000
 Translational            0.889              2.981             40.929
 Rotational               0.889              2.981             30.498
 Vibrational            169.987             42.207             35.114
 Vibration     1          0.598              1.969              4.203
 Vibration     2          0.604              1.949              3.462
 Vibration     3          0.611              1.925              2.967
 Vibration     4          0.622              1.890              2.536
 Vibration     5          0.628              1.869              2.349
 Vibration     6          0.644              1.820              2.013
 Vibration     7          0.659              1.774              1.779
 Vibration     8          0.664              1.759              1.717
 Vibration     9          0.672              1.735              1.620
 Vibration    10          0.683              1.703              1.508
 Vibration    11          0.696              1.663              1.386
 Vibration    12          0.719              1.597              1.217
 Vibration    13          0.745              1.526              1.063
 Vibration    14          0.768              1.464              0.952
 Vibration    15          0.799              1.385              0.830
 Vibration    16          0.813              1.350              0.781
 Vibration    17          0.855              1.250              0.658
 Vibration    18          0.868              1.220              0.626
 Vibration    19          0.940              1.067              0.479
 Vibration    20          0.960              1.029              0.447

 Optimization completed.
    -- Stationary point found.
 Normal termination of Gaussian 16 at Mon May 15 20:27:26 2023.
