 Gaussian 16, Revision A.03,
 Gaussian 16:  ES64L-G16RevA.03 25-Dec-2016

 -----------------------------
 # opt freq b3lyp/6-31g(2df,p)
 -----------------------------

 -------------------
 Title Card Required
 -------------------
 Symbolic Z-matrix:
 Charge =  0 Multiplicity = 1

 SCF Done:  E(RB3LYP) =  -753.022556546     A.U. after   14 cycles
 SCF Done:  E(RB3LYP) =  -753.041591552     A.U. after   15 cycles
 SCF Done:  E(RB3LYP) =  -753.053069655     A.U. after   14 cycles
 SCF Done:  E(RB3LYP) =  -753.056572492     A.U. after   13 cycles
 SCF Done:  E(RB3LYP) =  -753.058460159     A.U. after   11 cycles
 SCF Done:  E(RB3LYP) =  -753.060171518     A.U. after   12 cycles
 SCF Done:  E(RB3LYP) =  -753.060681109     A.U. after   12 cycles
 SCF Done:  E(RB3LYP) =  -753.061002664     A.U. after   11 cycles
 SCF Done:  E(RB3LYP) =  -753.061238332     A.U. after   12 cycles
 SCF Done:  E(RB3LYP) =  -753.061462464     A.U. after   11 cycles
 SCF Done:  E(RB3LYP) =  -753.061835130     A.U. after   11 cycles
 SCF Done:  E(RB3LYP) =  -753.061880114     A.U. after   11 cycles
 SCF Done:  E(RB3LYP) =  -753.061885727     A.U. after    9 cycles
 SCF Done:  E(RB3LYP) =  -753.061887873     A.U. after    9 cycles
 SCF Done:  E(RB3LYP) =  -753.061888798     A.U. after    8 cycles
 SCF Done:  E(RB3LYP) =  -753.061888585     A.U. after    8 cycles
 SCF Done:  E(RB3LYP) =  -753.061888567     A.U. after    6 cycles
 SCF Done:  E(RB3LYP) =  -753.061888805     A.U. after    7 cycles
 SCF Done:  E(RB3LYP) =  -753.061888559     A.U. after    7 cycles
 Optimization completed.
    -- Stationary point found.

 The electronic state is 1-A.
 Alpha  occ. eigenvalues --  -24.71776 -14.33465 -14.33440 -10.28604 -10.24250
 Alpha  occ. eigenvalues --  -10.24157 -10.22671 -10.21932 -10.21572 -10.21486
 Alpha  occ. eigenvalues --  -10.21079 -10.20782 -10.18695 -10.18623 -10.18193
 Alpha  occ. eigenvalues --  -10.17984 -10.17426  -1.23982  -0.94858  -0.90883
 Alpha  occ. eigenvalues --   -0.87885  -0.84055  -0.79378  -0.79041  -0.75924
 Alpha  occ. eigenvalues --   -0.71298  -0.67224  -0.64043  -0.62339  -0.60261
 Alpha  occ. eigenvalues --   -0.58928  -0.57870  -0.57154  -0.52532  -0.51721
 Alpha  occ. eigenvalues --   -0.50257  -0.48798  -0.48146  -0.47429  -0.47215
 Alpha  occ. eigenvalues --   -0.45356  -0.43331  -0.43087  -0.42386  -0.41638
 Alpha  occ. eigenvalues --   -0.39553  -0.39340  -0.38096  -0.37570  -0.36711
 Alpha  occ. eigenvalues --   -0.36100  -0.35474  -0.34752  -0.33992  -0.33792
 Alpha  occ. eigenvalues --   -0.33499  -0.32600  -0.30387  -0.29048  -0.27591
 Alpha  occ. eigenvalues --   -0.25854  -0.22534
 Alpha virt. eigenvalues --   -0.05844  -0.02067   0.03277   0.07448   0.07640
 Alpha virt. eigenvalues --    0.08954   0.10003   0.10730   0.11565   0.12348
 Alpha virt. eigenvalues --    0.13331   0.13527   0.14092   0.14844   0.15407

 Mulliken charges:
               1
     1  C   -0.380624
     2  C   -0.165722
     3  C   -0.176413
     4  C   -0.178563
     5  N   -0.198559
     6  C    0.184805
     7  C   -0.127291
     8  C   -0.264129
     9  C    0.320605
    10  F   -0.070740
    11  C   -0.363800
    12  C    0.182115
    13  C    0.239687
    14  N   -0.362563
    15  C    0.020818
    16  C   -0.277253
    17  C   -0.280336
    18  H    0.113036
    19  H    0.113219
    20  H    0.114393
    21  H    0.096407
    22  H    0.101813
    23  H    0.097174
    24  H    0.094814
    25  H    0.109587
    26  H    0.106726
    27  H    0.118307
    28  H    0.125565
    29  H    0.137090
    30  H    0.105644
    31  H    0.115964
    32  H    0.115684
    33  H    0.114968
    34  H    0.117570
 Sum of Mulliken charges =  -0.00000

 Dipole moment (field-independent basis, Debye):
    X=              0.3502    Y=             -0.8933    Z=             -3.1175  Tot=              3.2618
 Quadrupole moment (field-independent basis, Debye-Ang):
   XX=            -98.6699   YY=           -100.2359   ZZ=           -108.2547
   XY=              0.1500   XZ=              0.9893   YZ=             -3.2949

 Normal termination of Gaussian 16 at Tue May 16 03:41:28 2023.

 ----------------------------------------------------------------------
 #N Geom=AllCheck Guess=TCheck SCRF=Check GenChk RB3LYP/6-31G(2df,p) Fr
 eq
 ----------------------------------------------------------------------

 Structure from the checkpoint file:  "CCCCNqc1cccqFrcc1CtNrC1CC1.chk"
 -------------------
 Title Card Required
 -------------------
 Charge =  0 Multiplicity = 1

                         Standard orientation:
 ---------------------------------------------------------------------
 Center     Atomic      Atomic             Coordinates (Angstroms)
 Number     Number       Type             X           Y           Z
 ---------------------------------------------------------------------
      1          6           0        3.907503   -2.994558   -0.160171
      2          6           0        3.482368   -1.648311    0.432273
      3          6           0        2.251115   -1.052224   -0.259306
      4          6           0        1.834633    0.288935    0.347394
      5          7           0        0.691799    0.908631   -0.344683
      6          6           0       -0.536932    0.178393   -0.292305
      7          6           0       -0.989399   -0.444107   -1.457123
      8          6           0       -2.180188   -1.162050   -1.495727
      9          6           0       -2.940953   -1.258857   -0.339204
     10          9           0       -4.087477   -1.940865   -0.362816
     11          6           0       -2.537721   -0.663039    0.842875
     12          6           0       -1.333107    0.053548    0.868686
     13          6           0       -0.939252    0.648884    2.109290
     14          7           0       -0.643103    1.118036    3.125810
     15          6           0        0.564813    2.328784   -0.114350
     16          6           0        1.412897    3.243248   -0.960864
     17          6           0       -0.075859    3.161259   -1.190937
     18          1           0        4.788030   -3.395346    0.351375
     19          1           0        4.154463   -2.899290   -1.223435
     20          1           0        3.105585   -3.736111   -0.073175
     21          1           0        4.317087   -0.938142    0.364172
     22          1           0        3.274555   -1.768737    1.503437
     23          1           0        1.420052   -1.765966   -0.193945
     24          1           0        2.453500   -0.910267   -1.328728
     25          1           0        2.663086    0.999420    0.257662
     26          1           0        1.645024    0.165235    1.426554
     27          1           0       -0.376835   -0.348773   -2.345581
     28          1           0       -2.525370   -1.640457   -2.404647
     29          1           0       -3.148971   -0.754082    1.732030
     30          1           0        0.393921    2.649939    0.913673
     31          1           0        2.052654    2.772376   -1.698291
     32          1           0        1.822812    4.134268   -0.498892
     33          1           0       -0.413288    2.643472   -2.081251
     34          1           0       -0.699385    3.994152   -0.886693
 ---------------------------------------------------------------------

 SCF Done:  E(RB3LYP) =  -753.061888559     A.U. after    1 cycles
