 Gaussian 16, Revision A.03,
 Gaussian 16:  ES64L-G16RevA.03 25-Dec-2016

 -----------------------------
 # opt freq b3lyp/6-31g(2df,p)
 -----------------------------

 -------------------
 Title Card Required
 -------------------
 Symbolic Z-matrix:
 Charge =  0 Multiplicity = 1

 SCF Done:  E(RB3LYP) =  -353.803659051     A.U. after   12 cycles
 SCF Done:  E(RB3LYP) =  -353.808425618     A.U. after   10 cycles
 SCF Done:  E(RB3LYP) =  -353.809409034     A.U. after    9 cycles
 SCF Done:  E(RB3LYP) =  -353.810177682     A.U. after    9 cycles
 SCF Done:  E(RB3LYP) =  -353.810599695     A.U. after   10 cycles
 SCF Done:  E(RB3LYP) =  -353.810685145     A.U. after    9 cycles
 SCF Done:  E(RB3LYP) =  -353.810737066     A.U. after    9 cycles
 SCF Done:  E(RB3LYP) =  -353.810745541     A.U. after    8 cycles
 SCF Done:  E(RB3LYP) =  -353.810760691     A.U. after    9 cycles
 SCF Done:  E(RB3LYP) =  -353.810765432     A.U. after    8 cycles
 SCF Done:  E(RB3LYP) =  -353.810766231     A.U. after    6 cycles
 SCF Done:  E(RB3LYP) =  -353.810766327     A.U. after    5 cycles
 Optimization completed.
    -- Stationary point found.
 Normal termination of Gaussian 16 at Mon May 15 15:09:05 2023.

 ----------------------------------------------------------------------
 #N Geom=AllCheck Guess=TCheck SCRF=Check GenChk RB3LYP/6-31G(2df,p) Fr
 eq
 ----------------------------------------------------------------------

 Structure from the checkpoint file:  "CCCC1CC1CCC.chk"
 -------------------
 Title Card Required
 -------------------
 Charge =  0 Multiplicity = 1

                         Standard orientation:
 ---------------------------------------------------------------------
 Center     Atomic      Atomic             Coordinates (Angstroms)
 Number     Number       Type             X           Y           Z
 ---------------------------------------------------------------------
      1          6           0        3.855967   -1.100473   -0.213785
      2          6           0        2.569499   -0.303476   -0.451759
      3          6           0        1.755526   -0.116576    0.834176
      4          6           0        0.460616    0.675370    0.726574
      5          6           0        0.297847    1.897777   -0.147291
      6          6           0       -0.465844    0.633153   -0.464797
      7          6           0       -1.966292    0.558767   -0.272663
      8          6           0       -2.484842   -0.873249   -0.085002
      9          6           0       -4.002567   -0.944765    0.101875
     10          1           0        4.425113   -1.226098   -1.140169
     11          1           0        3.636105   -2.099065    0.180185
     12          1           0        4.505489   -0.596792    0.510847
     13          1           0        1.962854   -0.818711   -1.206280
     14          1           0        2.826740    0.674148   -0.877303
     15          1           0        2.396773    0.369953    1.583309
     16          1           0        1.521758   -1.109452    1.244645
     17          1           0       -0.056702    0.745480    1.682195
     18          1           0        1.110002    2.180620   -0.808113
     19          1           0       -0.254324    2.741139    0.255916
     20          1           0       -0.104311    0.083128   -1.330705
     21          1           0       -2.472174    1.016746   -1.134606
     22          1           0       -2.248834    1.164876    0.599389
     23          1           0       -1.982989   -1.325800    0.779782
     24          1           0       -2.193399   -1.478017   -0.954074
     25          1           0       -4.320092   -0.378153    0.984591
     26          1           0       -4.342896   -1.977198    0.229939
     27          1           0       -4.528568   -0.525970   -0.763514
 ---------------------------------------------------------------------

 SCF Done:  E(RB3LYP) =  -353.810766327     A.U. after    1 cycles

 The electronic state is 1-A.
 Alpha  occ. eigenvalues --  -10.18080 -10.17886 -10.17649 -10.17588 -10.17418
 Alpha  occ. eigenvalues --  -10.17394 -10.17259 -10.17049 -10.16879  -0.85489
 Alpha  occ. eigenvalues --   -0.78166  -0.76772  -0.69550  -0.67447  -0.60282
 Alpha  occ. eigenvalues --   -0.58733  -0.56743  -0.54009  -0.47372  -0.45812
 Alpha  occ. eigenvalues --   -0.45484  -0.44461  -0.40827  -0.39880  -0.38782
 Alpha  occ. eigenvalues --   -0.38333  -0.37585  -0.36621  -0.34216  -0.33451
 Alpha  occ. eigenvalues --   -0.33279  -0.32331  -0.32182  -0.31573  -0.26781
 Alpha  occ. eigenvalues --   -0.26067
 Alpha virt. eigenvalues --    0.09325   0.09652   0.10139   0.11576   0.12497
 Alpha virt. eigenvalues --    0.13343   0.14784   0.15130   0.15775   0.16401
 Alpha virt. eigenvalues --    0.16976   0.18244   0.18403   0.19095   0.19135

 Mulliken charges:
               1
     1  C   -0.379305
     2  C   -0.168356
     3  C   -0.193898
     4  C   -0.005089
     5  C   -0.315749
     6  C    0.012837
     7  C   -0.195993
     8  C   -0.153882
     9  C   -0.379216
    10  H    0.109500
    11  H    0.113418
    12  H    0.113697
    13  H    0.099344
    14  H    0.098594
    15  H    0.093102
    16  H    0.093050
    17  H    0.075077
    18  H    0.106570
    19  H    0.102297
    20  H    0.076102
    21  H    0.089795
    22  H    0.086639
    23  H    0.096010
    24  H    0.091536
    25  H    0.111998
    26  H    0.109385
    27  H    0.112538
 Sum of Mulliken charges =  -0.00000

 Dipole moment (field-independent basis, Debye):
    X=              0.0736    Y=             -0.1414    Z=              0.0014  Tot=              0.1594
 Quadrupole moment (field-independent basis, Debye-Ang):
   XX=            -60.0860   YY=            -59.8627   ZZ=            -58.8985
   XY=             -0.0118   XZ=             -0.5385   YZ=              0.3957

  Exact polarizability: 115.522  -0.657  92.255   0.590  -0.577  84.584
 Approx polarizability: 133.594   0.412 132.735   2.149  -0.603 130.963

                      1                      2                      3
                      A                      A                      A
 Frequencies --     39.4407                63.1960                81.5335
 Red. masses --      1.7838                 2.6998                 2.0316
 Frc consts  --      0.0016                 0.0064                 0.0080
 IR Inten    --      0.0168                 0.0019                 0.0083

                      4                      5                      6
                      A                      A                      A
 Frequencies --     89.6949               142.3132               185.2240
 Red. masses --      2.0144                 2.6281                 2.6076
 Frc consts  --      0.0095                 0.0314                 0.0527
 IR Inten    --      0.0038                 0.0356                 0.0377

                      7                      8                      9
                      A                      A                      A
 Frequencies --    243.8740               246.3373               268.7606
 Red. masses --      1.1577                 1.0888                 2.4103
 Frc consts  --      0.0406                 0.0389                 0.1026
 IR Inten    --      0.0036                 0.0053                 0.1249

                     10                     11                     12
                      A                      A                      A
 Frequencies --    302.3184               317.4112               408.6016
 Red. masses --      2.4351                 2.7184                 3.1830
 Frc consts  --      0.1311                 0.1614                 0.3131
 IR Inten    --      0.0367                 0.1401                 0.4186

                     13                     14                     15
                      A                      A                      A
 Frequencies --    436.3527               558.7305               735.7813
 Red. masses --      2.2427                 2.5412                 1.2269
 Frc consts  --      0.2516                 0.4674                 0.3913
 IR Inten    --      0.2451                 0.8403                 0.3500

                     16                     17                     18
                      A                      A                      A
 Frequencies --    744.5479               776.1802               805.8094
 Red. masses --      1.0997                 2.0755                 1.8258
 Frc consts  --      0.3592                 0.7367                 0.6985
 IR Inten    --      3.6503                 1.4659                 2.9415

                     19                     20                     21
                      A                      A                      A
 Frequencies --    843.4608               865.7618               897.7891
 Red. masses --      1.3218                 1.3426                 1.8187
 Frc consts  --      0.5541                 0.5929                 0.8637
 IR Inten    --      0.4858                 1.0763                 2.4813

                     22                     23                     24
                      A                      A                      A
 Frequencies --    915.5611               933.6429               946.2658
 Red. masses --      1.6074                 1.8610                 1.6443
 Frc consts  --      0.7939                 0.9558                 0.8675
 IR Inten    --      0.9261                 7.4522                 0.9521

                     25                     26                     27
                      A                      A                      A
 Frequencies --   1021.9218              1037.0056              1056.3350
 Red. masses --      1.7062                 2.2816                 2.1329
 Frc consts  --      1.0498                 1.4456                 1.4022
 IR Inten    --      1.8581                 1.8596                 0.0166

                     28                     29                     30
                      A                      A                      A
 Frequencies --   1057.6889              1071.7985              1105.9885
 Red. masses --      1.4799                 1.4202                 2.2526
 Frc consts  --      0.9754                 0.9612                 1.6234
 IR Inten    --      3.7937                 2.9525                 0.4427

                     31                     32                     33
                      A                      A                      A
 Frequencies --   1121.9613              1133.2781              1157.5091
 Red. masses --      1.1503                 1.8959                 1.7636
 Frc consts  --      0.8532                 1.4346                 1.3922
 IR Inten    --      2.2085                 0.4249                 2.0129

                     34                     35                     36
                      A                      A                      A
 Frequencies --   1165.3574              1203.1953              1240.7915
 Red. masses --      1.8170                 1.8790                 1.6213
 Frc consts  --      1.4539                 1.6027                 1.4707
 IR Inten    --      1.7785                 0.2391                 1.1836

                     37                     38                     39
                      A                      A                      A
 Frequencies --   1264.4498              1276.5286              1302.7688
 Red. masses --      1.3936                 1.2819                 1.3043
 Frc consts  --      1.3128                 1.2308                 1.3043
 IR Inten    --      0.8709                 2.0427                10.5735

                     40                     41                     42
                      A                      A                      A
 Frequencies --   1317.0110              1329.3650              1335.6079
 Red. masses --      1.4371                 1.1335                 1.0909
 Frc consts  --      1.4686                 1.1802                 1.1466
 IR Inten    --      3.0534                 0.4573                 0.1883

                     43                     44                     45
                      A                      A                      A
 Frequencies --   1353.6459              1387.6288              1405.2931
 Red. masses --      1.3306                 1.5403                 1.5083
 Frc consts  --      1.4365                 1.7475                 1.7550
 IR Inten    --      3.0199                 0.9381                 2.5353

                     46                     47                     48
                      A                      A                      A
 Frequencies --   1411.3460              1413.3806              1440.8655
 Red. masses --      1.2424                 1.2604                 1.4763
 Frc consts  --      1.4580                 1.4835                 1.8058
 IR Inten    --      0.5233                 0.8169                 1.4001

                     49                     50                     51
                      A                      A                      A
 Frequencies --   1481.6286              1484.1634              1492.8759
 Red. masses --      1.0780                 1.0748                 1.0984
 Frc consts  --      1.3942                 1.3949                 1.4423
 IR Inten    --      0.8232                 0.2672                 1.6709

                     52                     53                     54
                      A                      A                      A
 Frequencies --   1493.8290              1499.3984              1499.8270
 Red. masses --      1.0639                 1.0544                 1.0410
 Frc consts  --      1.3988                 1.3966                 1.3797
 IR Inten    --      1.4963                 5.6178                 4.4579

                     55                     56                     57
                      A                      A                      A
 Frequencies --   1502.8124              1510.3851              1511.7749
 Red. masses --      1.3960                 1.0828                 1.1133
 Frc consts  --      1.8576                 1.4553                 1.4992
 IR Inten    --      4.0074                 3.2785                 2.7600

                     58                     59                     60
                      A                      A                      A
 Frequencies --   2995.4161              2999.2580              3016.4870
 Red. masses --      1.0583                 1.0586                 1.0619
 Frc consts  --      5.5949                 5.6105                 5.6929
 IR Inten    --     33.1149                19.8912                33.6434

                     61                     62                     63
                      A                      A                      A
 Frequencies --   3021.4926              3025.4409              3026.9146
 Red. masses --      1.1004                 1.0569                 1.0594
 Frc consts  --      5.9189                 5.6997                 5.7188
 IR Inten    --     17.8624                19.1954                30.9223

                     64                     65                     66
                      A                      A                      A
 Frequencies --   3027.7023              3028.5908              3053.1681
 Red. masses --      1.0716                 1.0377                 1.1031
 Frc consts  --      5.7877                 5.6078                 6.0583
 IR Inten    --     20.7027                46.2892                28.5791

                     67                     68                     69
                      A                      A                      A
 Frequencies --   3059.8603              3093.2291              3095.9683
 Red. masses --      1.1025                 1.1021                 1.1024
 Frc consts  --      6.0816                 6.2127                 6.2256
 IR Inten    --     16.3871                50.9430                49.6224

                     70                     71                     72
                      A                      A                      A
 Frequencies --   3099.0980              3100.5844              3111.7776
 Red. masses --      1.1009                 1.1009                 1.0855
 Frc consts  --      6.2296                 6.2359                 6.1928
 IR Inten    --     37.1750                35.3546                18.9718

                     73                     74                     75
                      A                      A                      A
 Frequencies --   3126.1754              3132.6312              3208.3932
 Red. masses --      1.0563                 1.0867                 1.1150
 Frc consts  --      6.0823                 6.2834                 6.7624
 IR Inten    --     20.3039                26.4765                17.0573

 - Thermochemistry -
 -------------------
 Temperature   298.150 Kelvin.  Pressure   1.00000 Atm.
 Atom     1 has atomic number  6 and mass  12.00000

 Molecular mass:   126.14085 amu.
 Principal axes and moments of inertia in atomic units:
                           1         2         3
     Eigenvalues --   589.582112881.060693186.83415
           X            0.99999  -0.00191  -0.00267
           Y            0.00191   1.00000  -0.00115
           Z            0.00267   0.00114   1.00000
 This molecule is an asymmetric top.
 Rotational symmetry number  1.
 Warning -- assumption of classical behavior for rotation
           may cause significant error
 Rotational temperatures (Kelvin)      0.14691     0.03006     0.02718
 Rotational constants (GHZ):           3.06105     0.62642     0.56631
 Zero-point vibrational energy     658892.3 (Joules/Mol)
                                  157.47904 (Kcal/Mol)
 Warning -- explicit consideration of  14 degrees of freedom as
           vibrations may cause significant error
 Vibrational temperatures:     56.75    90.92   117.31   129.05   204.76
          (Kelvin)            266.50   350.88   354.42   386.69   434.97
                              456.68   587.89   627.81   803.89  1058.63
                             1071.24  1116.75  1159.38  1213.55  1245.64
                             1291.72  1317.29  1343.30  1361.47  1470.32
                             1492.02  1519.83  1521.78  1542.08  1591.27
                             1614.25  1630.53  1665.40  1676.69  1731.13
                             1785.22  1819.26  1836.64  1874.39  1894.89
                             1912.66  1921.64  1947.59  1996.49  2021.90
                             2030.61  2033.54  2073.08  2131.73  2135.38
                             2147.92  2149.29  2157.30  2157.92  2162.21
                             2173.11  2175.11  4309.74  4315.26  4340.05
                             4347.25  4352.93  4355.05  4356.19  4357.47
                             4392.83  4402.46  4450.47  4454.41  4458.91
                             4461.05  4477.15  4497.87  4507.16  4616.16

 Zero-point correction=                           0.250959 (Hartree/Particle)
 Thermal correction to Energy=                    0.262378
 Thermal correction to Enthalpy=                  0.263322
 Thermal correction to Gibbs Free Energy=         0.213074
 Sum of electronic and zero-point Energies=           -353.559807
 Sum of electronic and thermal Energies=              -353.548389
 Sum of electronic and thermal Enthalpies=            -353.547444
 Sum of electronic and thermal Free Energies=         -353.597692

                     E (Thermal)             CV                S
                      KCal/Mol        Cal/Mol-Kelvin    Cal/Mol-Kelvin
 Total                  164.644             41.463            105.756
 Electronic               0.000              0.000              0.000
 Translational            0.889              2.981             40.410
 Rotational               0.889              2.981             30.072
 Vibrational            162.867             35.501             35.274
 Vibration     1          0.594              1.981              5.287
 Vibration     2          0.597              1.972              4.355
 Vibration     3          0.600              1.962              3.854
 Vibration     4          0.602              1.956              3.667
 Vibration     5          0.616              1.911              2.773
 Vibration     6          0.631              1.860              2.275
 Vibration     7          0.659              1.773              1.774
 Vibration     8          0.661              1.769              1.757
 Vibration     9          0.673              1.731              1.604
 Vibration    10          0.694              1.669              1.404
 Vibration    11          0.704              1.640              1.323
 Vibration    12          0.773              1.452              0.932
 Vibration    13          0.797              1.391              0.838
 Vibration    14          0.914              1.121              0.526

                           ! Non-Optimized Parameters !
 Normal termination of Gaussian 16 at Mon May 15 15:47:25 2023.
