 Gaussian 16, Revision A.03,
 Gaussian 16:  ES64L-G16RevA.03 25-Dec-2016

 -----------------------------
 # opt freq b3lyp/6-31g(2df,p)
 -----------------------------

 -------------------
 Title Card Required
 -------------------
 Symbolic Z-matrix:
 Charge =  0 Multiplicity = 1

 SCF Done:  E(RB3LYP) =  -383.497476710     A.U. after   13 cycles
 SCF Done:  E(RB3LYP) =  -383.499250735     A.U. after   12 cycles
 SCF Done:  E(RB3LYP) =  -383.499596368     A.U. after   10 cycles
 SCF Done:  E(RB3LYP) =  -383.499682620     A.U. after    9 cycles
 SCF Done:  E(RB3LYP) =  -383.499694931     A.U. after    8 cycles
 SCF Done:  E(RB3LYP) =  -383.499696359     A.U. after    8 cycles
 SCF Done:  E(RB3LYP) =  -383.499697714     A.U. after    7 cycles
 SCF Done:  E(RB3LYP) =  -383.499698437     A.U. after    8 cycles
 SCF Done:  E(RB3LYP) =  -383.499698777     A.U. after    7 cycles
 SCF Done:  E(RB3LYP) =  -383.499699050     A.U. after    7 cycles
 SCF Done:  E(RB3LYP) =  -383.499699297     A.U. after    7 cycles
 SCF Done:  E(RB3LYP) =  -383.499699417     A.U. after    7 cycles
 Optimization completed.
    -- Stationary point found.
 Normal termination of Gaussian 16 at Mon May 15 15:00:04 2023.

 ----------------------------------------------------------------------
 #N Geom=AllCheck Guess=TCheck SCRF=Check GenChk RB3LYP/6-31G(2df,p) Fr
 eq
 ----------------------------------------------------------------------

 Structure from the checkpoint file:  "CCCCn1ccnc1.chk"
 -------------------
 Title Card Required
 -------------------
 Charge =  0 Multiplicity = 1

                         Standard orientation:
 ---------------------------------------------------------------------
 Center     Atomic      Atomic             Coordinates (Angstroms)
 Number     Number       Type             X           Y           Z
 ---------------------------------------------------------------------
      1          6           0        3.922507    0.296535   -0.627745
      2          6           0        2.839269   -0.197670    0.334760
      3          6           0        1.420473    0.089176   -0.167196
      4          6           0        0.343302   -0.406778    0.804820
      5          7           0       -1.011890   -0.151906    0.342427
      6          6           0       -1.673868    1.057858    0.344242
      7          6           0       -2.892534    0.814758   -0.233348
      8          7           0       -3.001805   -0.507639   -0.593572
      9          6           0       -1.860081   -1.051021   -0.236364
     10          1           0        4.923896    0.078298   -0.244760
     11          1           0        3.852013    1.378977   -0.780431
     12          1           0        3.828366   -0.182094   -1.608497
     13          1           0        2.979536    0.271910    1.317506
     14          1           0        2.956596   -1.277612    0.495773
     15          1           0        1.262591   -0.386781   -1.142938
     16          1           0        1.292142    1.167190   -0.325424
     17          1           0        0.471810    0.064254    1.786033
     18          1           0        0.439721   -1.486926    0.955428
     19          1           0       -1.223556    1.947369    0.753710
     20          1           0       -3.697621    1.513605   -0.403389
     21          1           0       -1.584038   -2.088524   -0.360014
 ---------------------------------------------------------------------

 SCF Done:  E(RB3LYP) =  -383.499699417     A.U. after    1 cycles

 The electronic state is 1-A.
 Alpha  occ. eigenvalues --  -14.37955 -14.29534 -10.23644 -10.22151 -10.19815
 Alpha  occ. eigenvalues --  -10.19525 -10.19427 -10.18346 -10.18290  -1.00689
 Alpha  occ. eigenvalues --   -0.87837  -0.80373  -0.74492  -0.72359  -0.65687
 Alpha  occ. eigenvalues --   -0.59725  -0.58672  -0.56548  -0.52553  -0.48620
 Alpha  occ. eigenvalues --   -0.45815  -0.44180  -0.42548  -0.41744  -0.41257
 Alpha  occ. eigenvalues --   -0.39627  -0.38673  -0.36685  -0.35364  -0.34740
 Alpha  occ. eigenvalues --   -0.33926  -0.25962  -0.25595  -0.21896
 Alpha virt. eigenvalues --    0.03447   0.07480   0.07804   0.10038   0.10587
 Alpha virt. eigenvalues --    0.12517   0.13141   0.14717   0.15294   0.16195
 Alpha virt. eigenvalues --    0.16709   0.17369   0.18175   0.18870   0.19447

 Mulliken charges:
               1
     1  C   -0.381389
     2  C   -0.164514
     3  C   -0.164788
     4  C   -0.185811
     5  N    0.028502
     6  C   -0.131466
     7  C   -0.089622
     8  N   -0.274830
     9  C    0.001791
    10  H    0.116418
    11  H    0.118181
    12  H    0.119347
    13  H    0.099107
    14  H    0.099488
    15  H    0.110699
    16  H    0.107396
    17  H    0.121509
    18  H    0.122169
    19  H    0.120689
    20  H    0.105378
    21  H    0.121746
 Sum of Mulliken charges =   0.00000

 Dipole moment (field-independent basis, Debye):
    X=              3.9334    Y=              0.4627    Z=              1.4185  Tot=              4.2069
 Quadrupole moment (field-independent basis, Debye-Ang):
   XX=            -65.6518   YY=            -51.3688   ZZ=            -56.4660
   XY=             -4.0238   XZ=             -2.3095   YZ=              0.1330

  Exact polarizability: 107.453  -3.552  82.704   8.204   3.393  64.268
 Approx polarizability: 138.619  -3.592 134.513  18.436   9.202 100.197

                      1                      2                      3
                      A                      A                      A
 Frequencies --     39.5660                75.7822                83.4632
 Red. masses --      2.9201                 1.8947                 4.0362
 Frc consts  --      0.0027                 0.0064                 0.0166
 IR Inten    --      1.6254                 0.6252                 1.0786

                      4                      5                      6
                      A                      A                      A
 Frequencies --    117.5457               217.2146               245.1163
 Red. masses --      2.1840                 3.3788                 1.1126
 Frc consts  --      0.0178                 0.0939                 0.0394
 IR Inten    --      0.1227                 0.0549                 0.0196

                      7                      8                      9
                      A                      A                      A
 Frequencies --    322.4668               340.0568               427.9073
 Red. masses --      4.4477                 2.4390                 2.8729
 Frc consts  --      0.2725                 0.1662                 0.3099
 IR Inten    --      0.2588                 0.6029                 1.3073

                     10                     11                     12
                      A                      A                      A
 Frequencies --    640.7738               678.9444               726.8582
 Red. masses --      3.7273                 3.9348                 1.2310
 Frc consts  --      0.9017                 1.0687                 0.3832
 IR Inten    --      3.5301                14.2509                16.3256

                     13                     14                     15
                      A                      A                      A
 Frequencies --    736.8162               738.8574               796.7711
 Red. masses --      2.7923                 1.2581                 1.1694
 Frc consts  --      0.8932                 0.4047                 0.4374
 IR Inten    --      4.8625                 3.6215                 0.1915

                     16                     17                     18
                      A                      A                      A
 Frequencies --    815.1193               853.3786               912.2493
 Red. masses --      1.3484                 1.3219                 1.7939
 Frc consts  --      0.5278                 0.5672                 0.8796
 IR Inten    --     22.2107                 2.6097                 1.9581

                     19                     20                     21
                      A                      A                      A
 Frequencies --    917.0015               940.0771              1014.0118
 Red. masses --      5.7603                 1.2150                 3.8275
 Frc consts  --      2.8539                 0.6326                 2.3187
 IR Inten    --     12.5299                 0.5954                 3.1631

                     22                     23                     24
                      A                      A                      A
 Frequencies --   1048.8059              1063.3856              1099.1725
 Red. masses --      3.4421                 2.4112                 1.3883
 Frc consts  --      2.2308                 1.6064                 0.9883
 IR Inten    --     17.3515                 0.0944                20.6603

                     25                     26                     27
                      A                      A                      A
 Frequencies --   1125.2086              1135.9793              1146.6373
 Red. masses --      1.9629                 1.8720                 1.9069
 Frc consts  --      1.4643                 1.4233                 1.4772
 IR Inten    --      2.1425                 1.1352                13.0538

                     28                     29                     30
                      A                      A                      A
 Frequencies --   1235.2397              1264.3638              1290.0865
 Red. masses --      1.5663                 1.7599                 1.3353
 Frc consts  --      1.4081                 1.6576                 1.3094
 IR Inten    --      1.1368                31.8255                10.9855

                     31                     32                     33
                      A                      A                      A
 Frequencies --   1303.3957              1314.0731              1328.3543
 Red. masses --      1.5686                 1.5562                 1.0685
 Frc consts  --      1.5701                 1.5833                 1.1109
 IR Inten    --      7.4279                16.1614                 0.7859

                     34                     35                     36
                      A                      A                      A
 Frequencies --   1382.3867              1391.0725              1402.8695
 Red. masses --      1.4339                 5.0832                 1.5584
 Frc consts  --      1.6145                 5.7954                 1.8070
 IR Inten    --      2.3260                 2.3577                16.1148

                     37                     38                     39
                      A                      A                      A
 Frequencies --   1415.5530              1418.6290              1480.9780
 Red. masses --      1.2934                 2.3251                 1.1312
 Frc consts  --      1.5270                 2.7570                 1.4619
 IR Inten    --      1.8380                 7.1791                 7.9278

                     40                     41                     42
                      A                      A                      A
 Frequencies --   1487.3848              1499.9631              1500.2384
 Red. masses --      1.0734                 1.0771                 1.0534
 Frc consts  --      1.3992                 1.4278                 1.3969
 IR Inten    --      0.3524                 6.5582                 5.0894

                     43                     44                     45
                      A                      A                      A
 Frequencies --   1512.8022              1534.4671              1543.2181
 Red. masses --      1.1059                 2.8860                 3.7302
 Frc consts  --      1.4912                 4.0037                 5.2340
 IR Inten    --      3.4451                37.2583                29.6851

                     46                     47                     48
                      A                      A                      A
 Frequencies --   3012.2925              3026.3009              3032.9139
 Red. masses --      1.0587                 1.0567                 1.0376
 Frc consts  --      5.6600                 5.7020                 5.6236
 IR Inten    --     14.8309                 6.0509                28.3403

                     49                     50                     51
                      A                      A                      A
 Frequencies --   3038.6574              3041.3258              3064.6883
 Red. masses --      1.0985                 1.0628                 1.1019
 Frc consts  --      5.9759                 5.7922                 6.0975
 IR Inten    --      8.9650                52.1726                 8.0240

                     52                     53                     54
                      A                      A                      A
 Frequencies --   3091.7354              3100.4219              3106.0677
 Red. masses --      1.1053                 1.1024                 1.1012
 Frc consts  --      6.2249                 6.2437                 6.2595
 IR Inten    --     12.6152                60.7645                34.4447

                     55                     56                     57
                      A                      A                      A
 Frequencies --   3239.1691              3244.2761              3272.6687
 Red. masses --      1.0948                 1.0907                 1.1045
 Frc consts  --      6.7679                 6.7635                 6.9701
 IR Inten    --      3.8254                 4.4116                 3.1175

 - Thermochemistry -
 -------------------
 Temperature   298.150 Kelvin.  Pressure   1.00000 Atm.
 Atom     1 has atomic number  6 and mass  12.00000

 Molecular mass:   124.10005 amu.
 Principal axes and moments of inertia in atomic units:
                           1         2         3
     Eigenvalues --   340.355162677.524072766.77023
           X            0.99997  -0.00340  -0.00632
           Y            0.00322   0.99961  -0.02763
           Z            0.00641   0.02761   0.99960
 This molecule is an asymmetric top.
 Rotational symmetry number  1.
 Rotational temperatures (Kelvin)      0.25448     0.03235     0.03131
 Rotational constants (GHZ):           5.30252     0.67403     0.65229
 Zero-point vibrational energy     483499.2 (Joules/Mol)
                                  115.55909 (Kcal/Mol)
 Warning -- explicit consideration of   9 degrees of freedom as
           vibrations may cause significant error
 Vibrational temperatures:     56.93   109.03   120.08   169.12   312.52
          (Kelvin)            352.67   463.96   489.27   615.66   921.93
                              976.85  1045.79  1060.11  1063.05  1146.38
                             1172.77  1227.82  1312.52  1319.36  1352.56
                             1458.94  1509.00  1529.97  1581.46  1618.92
                             1634.42  1649.76  1777.23  1819.14  1856.15
                             1875.30  1890.66  1911.21  1988.95  2001.44
                             2018.42  2036.67  2041.09  2130.80  2140.01
                             2158.11  2158.51  2176.58  2207.76  2220.35
                             4334.02  4354.17  4363.69  4371.95  4375.79
                             4409.40  4448.32  4460.82  4468.94  4660.44
                             4667.79  4708.64

 Zero-point correction=                           0.184155 (Hartree/Particle)
 Thermal correction to Energy=                    0.193422
 Thermal correction to Enthalpy=                  0.194366
 Thermal correction to Gibbs Free Energy=         0.148609
 Sum of electronic and zero-point Energies=           -383.315544
 Sum of electronic and thermal Energies=              -383.306278
 Sum of electronic and thermal Enthalpies=            -383.305333
 Sum of electronic and thermal Free Energies=         -383.351090

                     E (Thermal)             CV                S
                      KCal/Mol        Cal/Mol-Kelvin    Cal/Mol-Kelvin
 Total                  121.374             33.392             96.303
 Electronic               0.000              0.000              0.000
 Translational            0.889              2.981             40.362
 Rotational               0.889              2.981             29.312
 Vibrational            119.597             27.430             26.629
 Vibration     1          0.594              1.981              5.281
 Vibration     2          0.599              1.965              3.997
 Vibration     3          0.600              1.961              3.808
 Vibration     4          0.608              1.935              3.140
 Vibration     5          0.646              1.815              1.982
 Vibration     6          0.660              1.771              1.765
 Vibration     7          0.707              1.630              1.298
 Vibration     8          0.720              1.595              1.212
 Vibration     9          0.789              1.409              0.866

 Optimization completed.
    -- Stationary point found.
 Normal termination of Gaussian 16 at Mon May 15 15:27:26 2023.
