 Gaussian 16, Revision A.03,
 Gaussian 16:  ES64L-G16RevA.03 25-Dec-2016

 -----------------------------
 # opt freq b3lyp/6-31g(2df,p)
 -----------------------------

 -------------------
 Title Card Required
 -------------------
 Symbolic Z-matrix:
 Charge =  0 Multiplicity = 1

 SCF Done:  E(RB3LYP) =  -886.656370270     A.U. after   19 cycles
 SCF Done:  E(RB3LYP) =  -886.704298706     A.U. after   14 cycles
 SCF Done:  E(RB3LYP) =  -886.759209963     A.U. after   15 cycles
 SCF Done:  E(RB3LYP) =  -886.778766096     A.U. after   14 cycles
 SCF Done:  E(RB3LYP) =  -886.827334963     A.U. after   12 cycles
 SCF Done:  E(RB3LYP) =  -886.841716937     A.U. after   12 cycles
 SCF Done:  E(RB3LYP) =  -886.844087210     A.U. after   11 cycles
 SCF Done:  E(RB3LYP) =  -886.844890813     A.U. after   10 cycles
 SCF Done:  E(RB3LYP) =  -886.845247664     A.U. after   11 cycles
 SCF Done:  E(RB3LYP) =  -886.845915580     A.U. after   10 cycles
 SCF Done:  E(RB3LYP) =  -886.846975668     A.U. after    9 cycles
 SCF Done:  E(RB3LYP) =  -886.846995613     A.U. after    9 cycles
 SCF Done:  E(RB3LYP) =  -886.846996398     A.U. after    7 cycles
 SCF Done:  E(RB3LYP) =  -886.846996860     A.U. after    7 cycles
 SCF Done:  E(RB3LYP) =  -886.846997024     A.U. after    6 cycles
 SCF Done:  E(RB3LYP) =  -886.846997036     A.U. after    6 cycles
 SCF Done:  E(RB3LYP) =  -886.846997057     A.U. after    6 cycles
 SCF Done:  E(RB3LYP) =  -886.846997046     A.U. after    6 cycles
 SCF Done:  E(RB3LYP) =  -886.846997029     A.U. after    5 cycles
 Optimization completed.
    -- Stationary point found.
 Normal termination of Gaussian 16 at Mon May 15 19:15:58 2023.

 ----------------------------------------------------------------------
 #N Geom=AllCheck Guess=TCheck SCRF=Check GenChk RB3LYP/6-31G(2df,p) Fr
 eq
 ----------------------------------------------------------------------

 Structure from the checkpoint file:  "CCCCOPqdOrqCqCrCrCqCrC.chk"
 -------------------
 Title Card Required
 -------------------
 Charge =  0 Multiplicity = 1

                         Standard orientation:
 ---------------------------------------------------------------------
 Center     Atomic      Atomic             Coordinates (Angstroms)
 Number     Number       Type             X           Y           Z
 ---------------------------------------------------------------------
      1          6           0        5.476850    0.195384   -0.235687
      2          6           0        4.208051   -0.484884    0.285433
      3          6           0        2.925933    0.136766   -0.279185
      4          6           0        1.670524   -0.543726    0.246641
      5          8           0        0.521884    0.068684   -0.364967
      6         15           0       -0.919362    0.039473    0.373074
      7          8           0       -0.878845    0.204121    1.844017
      8          6           0       -1.738503    1.406892   -0.535232
      9          6           0       -3.220913    1.531215   -0.145588
     10          6           0       -0.983193    2.720146   -0.263373
     11          6           0       -1.603619   -1.595603   -0.130935
     12          6           0       -2.836680   -2.003647    0.690496
     13          6           0       -1.820670   -1.734894   -1.645310
     14          1           0        6.376434   -0.267225    0.181639
     15          1           0        5.493578    1.257755    0.030940
     16          1           0        5.542295    0.127804   -1.327220
     17          1           0        4.187000   -0.430721    1.381632
     18          1           0        4.236828   -1.553628    0.034794
     19          1           0        2.929840    0.076957   -1.374744
     20          1           0        2.880960    1.202330   -0.023000
     21          1           0        1.593243   -0.446591    1.334713
     22          1           0        1.681064   -1.613608   -0.003617
     23          1           0       -1.660958    1.168706   -1.602747
     24          1           0       -3.329240    1.658875    0.935724
     25          1           0       -3.806223    0.657114   -0.443772
     26          1           0       -3.662660    2.405555   -0.635316
     27          1           0       -0.999122    2.960514    0.803875
     28          1           0       -1.460305    3.543376   -0.805699
     29          1           0        0.058944    2.654923   -0.583048
     30          1           0       -0.783379   -2.269519    0.156710
     31          1           0       -3.722259   -1.426482    0.407136
     32          1           0       -2.661553   -1.850723    1.757605
     33          1           0       -3.068924   -3.060871    0.521299
     34          1           0       -2.653414   -1.112580   -1.989838
     35          1           0       -2.064823   -2.771943   -1.899881
     36          1           0       -0.927884   -1.450440   -2.209262
 ---------------------------------------------------------------------

 SCF Done:  E(RB3LYP) =  -886.846997029     A.U. after    1 cycles

 The electronic state is 1-A.
 Alpha  occ. eigenvalues --  -77.14769 -19.15115 -19.07186 -10.23503 -10.19476
 Alpha  occ. eigenvalues --  -10.19370 -10.18508 -10.18439 -10.18235 -10.18055
 Alpha  occ. eigenvalues --  -10.17648 -10.17569 -10.17454  -6.60334  -4.76797
 Alpha  occ. eigenvalues --   -4.76520  -4.76455  -1.03902  -0.93915  -0.80414
 Alpha  occ. eigenvalues --   -0.79375  -0.78518  -0.72705  -0.68896  -0.68500
 Alpha  occ. eigenvalues --   -0.64915  -0.61273  -0.59205  -0.58296  -0.53058
 Alpha  occ. eigenvalues --   -0.48904  -0.48135  -0.46736  -0.45364  -0.44509
 Alpha  occ. eigenvalues --   -0.43698  -0.42980  -0.41313  -0.40910  -0.40064
 Alpha  occ. eigenvalues --   -0.39141  -0.38889  -0.38380  -0.37501  -0.36871
 Alpha  occ. eigenvalues --   -0.35309  -0.34860  -0.34561  -0.34259  -0.33895
 Alpha  occ. eigenvalues --   -0.33385  -0.32915  -0.32331  -0.31811  -0.28642
 Alpha  occ. eigenvalues --   -0.26958  -0.24840
 Alpha virt. eigenvalues --    0.06073   0.08061   0.08285   0.08881   0.09666
 Alpha virt. eigenvalues --    0.11943   0.12413   0.12561   0.13031   0.13389
 Alpha virt. eigenvalues --    0.13806   0.14597   0.15551   0.15845   0.16534

 Mulliken charges:
               1
     1  C   -0.380094
     2  C   -0.168336
     3  C   -0.179761
     4  C   -0.082723
     5  O   -0.235073
     6  P    0.408164
     7  O   -0.352111
     8  C   -0.019747
     9  C   -0.421598
    10  C   -0.405170
    11  C   -0.030471
    12  C   -0.418149
    13  C   -0.427112
    14  H    0.113657
    15  H    0.117413
    16  H    0.115073
    17  H    0.103364
    18  H    0.096653
    19  H    0.101426
    20  H    0.109071
    21  H    0.140499
    22  H    0.099827
    23  H    0.098585
    24  H    0.146404
    25  H    0.120369
    26  H    0.113157
    27  H    0.143891
    28  H    0.106251
    29  H    0.131980
    30  H    0.104454
    31  H    0.120754
    32  H    0.152829
    33  H    0.108576
    34  H    0.122274
    35  H    0.114352
    36  H    0.131323
 Sum of Mulliken charges =  -0.00000

 Dipole moment (field-independent basis, Debye):
    X=              0.3747    Y=             -0.8911    Z=             -2.6918  Tot=              2.8602
 Quadrupole moment (field-independent basis, Debye-Ang):
   XX=            -83.3925   YY=            -86.1327   ZZ=            -96.9225
   XY=             -0.9024   XZ=              4.0736   YZ=             -0.8362

  Exact polarizability: 157.440   1.036 136.111   0.479  -0.639 116.621
 Approx polarizability: 188.686  -1.321 188.840   1.343   0.046 186.262

                      1                      2                      3
                      A                      A                      A
 Frequencies --     19.5467                39.1128                51.8812
 Red. masses --      2.9297                 2.3270                 2.5696
 Frc consts  --      0.0007                 0.0021                 0.0041
 IR Inten    --      0.4055                 0.5437                 0.0355

                      4                      5                      6
                      A                      A                      A
 Frequencies --     59.2452                79.8407               109.9307
 Red. masses --      2.4027                 2.6994                 2.4701
 Frc consts  --      0.0050                 0.0101                 0.0176
 IR Inten    --      0.4274                 0.8352                 0.5297

                      7                      8                      9
                      A                      A                      A
 Frequencies --    128.3763               138.9165               160.9642
 Red. masses --      2.3074                 3.1352                 3.1265
 Frc consts  --      0.0224                 0.0356                 0.0477
 IR Inten    --      0.8455                 0.4297                 0.6673

                     10                     11                     12
                      A                      A                      A
 Frequencies --    178.5470               197.7301               207.7131
 Red. masses --      3.7582                 1.2281                 1.9978
 Frc consts  --      0.0706                 0.0283                 0.0508
 IR Inten    --      6.7871                 2.3087                 4.4688

                     13                     14                     15
                      A                      A                      A
 Frequencies --    222.5638               234.5856               246.6241
 Red. masses --      1.2639                 1.6265                 1.1012
 Frc consts  --      0.0369                 0.0527                 0.0395
 IR Inten    --      0.7348                 0.0922                 0.2185

                     16                     17                     18
                      A                      A                      A
 Frequencies --    249.5658               265.8665               275.1754
 Red. masses --      1.1357                 2.2237                 1.9762
 Frc consts  --      0.0417                 0.0926                 0.0882
 IR Inten    --      0.2160                 1.4838                 1.6969

                     19                     20                     21
                      A                      A                      A
 Frequencies --    291.1771               341.7060               361.8543
 Red. masses --      3.1782                 3.4791                 2.7047
 Frc consts  --      0.1588                 0.2393                 0.2087
 IR Inten    --      6.8920                 0.6363                 2.5590

                     22                     23                     24
                      A                      A                      A
 Frequencies --    401.9538               421.5811               449.6243
 Red. masses --      3.5390                 2.8087                 4.0795
 Frc consts  --      0.3369                 0.2941                 0.4859
 IR Inten    --      9.2796                 4.5911                 5.8265

                     25                     26                     27
                      A                      A                      A
 Frequencies --    468.6847               527.1053               617.9156
 Red. masses --      3.0252                 4.5401                 3.7250
 Frc consts  --      0.3915                 0.7432                 0.8380
 IR Inten    --      9.7329                18.3228                18.6335

                     28                     29                     30
                      A                      A                      A
 Frequencies --    713.2167               745.1987               807.1419
 Red. masses --      4.1518                 1.0719                 1.8868
 Frc consts  --      1.2443                 0.3507                 0.7242
 IR Inten    --     92.9445                 3.0044                54.3542

                     31                     32                     33
                      A                      A                      A
 Frequencies --    816.9057               888.8649               894.4879
 Red. masses --      2.1363                 2.4688                 2.4552
 Frc consts  --      0.8400                 1.1493                 1.1574
 IR Inten    --     57.0549                21.2766                22.1558

                     34                     35                     36
                      A                      A                      A
 Frequencies --    915.5197               932.0326               935.2105
 Red. masses --      1.7699                 1.1530                 1.1520
 Frc consts  --      0.8740                 0.5901                 0.5936
 IR Inten    --     16.6153                 0.9195                 8.0363

                     37                     38                     39
                      A                      A                      A
 Frequencies --    952.4151               977.0168               979.3371
 Red. masses --      1.1504                 1.3840                 1.4244
 Frc consts  --      0.6148                 0.7784                 0.8049
 IR Inten    --      0.3125                 0.1479                 0.3987

                     40                     41                     42
                      A                      A                      A
 Frequencies --   1015.3435              1039.3052              1056.7871
 Red. masses --      4.3912                 1.2758                 1.3589
 Frc consts  --      2.6672                 0.8119                 0.8942
 IR Inten    --    102.9214                34.8284                 1.2113

                     43                     44                     45
                      A                      A                      A
 Frequencies --   1061.7733              1071.0018              1108.0255
 Red. masses --      4.3136                 2.3483                 2.5076
 Frc consts  --      2.8652                 1.5870                 1.8139
 IR Inten    --    254.1375                47.8292                12.0760

                     46                     47                     48
                      A                      A                      A
 Frequencies --   1114.6577              1136.6763              1188.4399
 Red. masses --      2.5895                 2.4501                 1.8538
 Frc consts  --      1.8956                 1.8652                 1.5426
 IR Inten    --      3.5706                 2.2027                 2.0544

                     49                     50                     51
                      A                      A                      A
 Frequencies --   1194.0024              1194.6108              1254.2230
 Red. masses --      1.7131                 1.8150                 3.6469
 Frc consts  --      1.4389                 1.5261                 3.3801
 IR Inten    --      0.8277                 0.9801                92.7797

                     52                     53                     54
                      A                      A                      A
 Frequencies --   1256.2515              1288.7700              1294.1326
 Red. masses --      1.4988                 1.5366                 1.3212
 Frc consts  --      1.3936                 1.5037                 1.3037
 IR Inten    --     13.2056                 1.6099                 1.8761

                     55                     56                     57
                      A                      A                      A
 Frequencies --   1300.0908              1317.8446              1323.1254
 Red. masses --      1.6475                 1.2188                 1.2263
 Frc consts  --      1.6406                 1.2471                 1.2649
 IR Inten    --     15.5850                 0.8535                 1.1484

                     58                     59                     60
                      A                      A                      A
 Frequencies --   1325.2032              1325.5559              1387.4630
 Red. masses --      1.2990                 1.0996                 1.4579
 Frc consts  --      1.3441                 1.1384                 1.6536
 IR Inten    --      0.1134                 0.2260                 0.5250

                     61                     62                     63
                      A                      A                      A
 Frequencies --   1395.7443              1398.2149              1412.6008
 Red. masses --      1.2077                 1.2113                 1.2581
 Frc consts  --      1.3861                 1.3952                 1.4792
 IR Inten    --      0.3703                 1.7061                 2.2402

                     64                     65                     66
                      A                      A                      A
 Frequencies --   1416.0607              1422.9904              1424.6348
 Red. masses --      1.2106                 1.2159                 1.3589
 Frc consts  --      1.4303                 1.4506                 1.6250
 IR Inten    --      2.3161                 0.8489                14.3875

                     67                     68                     69
                      A                      A                      A
 Frequencies --   1484.7909              1487.6222              1489.6056
 Red. masses --      1.0422                 1.0641                 1.0479
 Frc consts  --      1.3537                 1.3874                 1.3700
 IR Inten    --      0.6246                 0.1821                 1.8736

                     70                     71                     72
                      A                      A                      A
 Frequencies --   1490.8193              1495.5588              1496.3680
 Red. masses --      1.0444                 1.0718                 1.0469
 Frc consts  --      1.3676                 1.4124                 1.3812
 IR Inten    --      0.3394                 0.7886                 1.3946

                     73                     74                     75
                      A                      A                      A
 Frequencies --   1500.1069              1500.4118              1507.2416
 Red. masses --      1.0400                 1.0426                 1.0477
 Frc consts  --      1.3788                 1.3829                 1.4023
 IR Inten    --      4.8925                 5.0798                 4.2899

                     76                     77                     78
                      A                      A                      A
 Frequencies --   1509.0925              1510.7543              1515.3086
 Red. masses --      1.0763                 1.0458                 1.0497
 Frc consts  --      1.4442                 1.4063                 1.4201
 IR Inten    --      0.7740                14.2516                 7.5296

                     79                     80                     81
                      A                      A                      A
 Frequencies --   1522.2234              3001.7580              3006.2344
 Red. masses --      1.0892                 1.0763                 1.0682
 Frc consts  --      1.4870                 5.7140                 5.6879
 IR Inten    --      2.4027                 7.9005                24.6898

                     82                     83                     84
                      A                      A                      A
 Frequencies --   3014.6858              3027.6827              3030.9780
 Red. masses --      1.0590                 1.0533                 1.0368
 Frc consts  --      5.6708                 5.6891                 5.6118
 IR Inten    --     17.7144                23.9239                14.2825

                     85                     86                     87
                      A                      A                      A
 Frequencies --   3032.0706              3034.8946              3037.0107
 Red. masses --      1.0429                 1.0360                 1.0382
 Frc consts  --      5.6491                 5.6222                 5.6420
 IR Inten    --     49.0584                 2.8692                52.7674

                     88                     89                     90
                      A                      A                      A
 Frequencies --   3038.7842              3039.9574              3041.4051
 Red. masses --      1.0505                 1.0660                 1.0988
 Frc consts  --      5.7155                 5.8040                 5.9887
 IR Inten    --     30.7964                14.5042                 5.4147

                     91                     92                     93
                      A                      A                      A
 Frequencies --   3063.2903              3085.8803              3093.2106
 Red. masses --      1.0987                 1.1041                 1.1009
 Frc consts  --      6.0746                 6.1945                 6.2061
 IR Inten    --      9.1186                17.9437                 8.8156

                     94                     95                     96
                      A                      A                      A
 Frequencies --   3097.4113              3098.8787              3103.0009
 Red. masses --      1.1003                 1.1024                 1.0991
 Frc consts  --      6.2194                 6.2373                 6.2354
 IR Inten    --     63.5222                65.8143                 2.9474

                     97                     98                     99
                      A                      A                      A
 Frequencies --   3104.0099              3106.4641              3112.6377
 Red. masses --      1.1011                 1.0995                 1.1012
 Frc consts  --      6.2508                 6.2516                 6.2858
 IR Inten    --     37.1892                21.4805                18.9995

                    100                    101                    102
                      A                      A                      A
 Frequencies --   3118.4509              3130.8730              3131.9234
 Red. masses --      1.1011                 1.1010                 1.1006
 Frc consts  --      6.3092                 6.3589                 6.3606
 IR Inten    --     16.8908                16.3756                12.4292

 - Thermochemistry -
 -------------------
 Temperature   298.150 Kelvin.  Pressure   1.00000 Atm.
 Atom     1 has atomic number  6 and mass  12.00000

 Molecular mass:   206.14357 amu.
 Principal axes and moments of inertia in atomic units:
                           1         2         3
     Eigenvalues --  1708.347205272.444696008.17434
           X            0.99999   0.00250   0.00441
           Y           -0.00248   0.99999  -0.00386
           Z           -0.00442   0.00385   0.99998
 This molecule is an asymmetric top.
 Rotational symmetry number  1.
 Warning -- assumption of classical behavior for rotation
           may cause significant error
 Rotational temperatures (Kelvin)      0.05070     0.01643     0.01442
 Rotational constants (GHZ):           1.05643     0.34230     0.30038
 Zero-point vibrational energy     843906.0 (Joules/Mol)
                                  201.69837 (Kcal/Mol)
 Warning -- explicit consideration of  27 degrees of freedom as
           vibrations may cause significant error
 Vibrational temperatures:     28.12    56.27    74.65    85.24   114.87
          (Kelvin)            158.17   184.70   199.87   231.59   256.89
                              284.49   298.85   320.22   337.52   354.84
                              359.07   382.52   395.92   418.94   491.64
                              520.63   578.32   606.56   646.91   674.33
                              758.39   889.04  1026.16  1072.17  1161.30
                             1175.35  1278.88  1286.97  1317.23  1340.99
                             1345.56  1370.31  1405.71  1409.05  1460.85
                             1495.33  1520.48  1527.65  1540.93  1594.20
                             1603.74  1635.42  1709.90  1717.90  1718.78
                             1804.55  1807.47  1854.25  1861.97  1870.54
                             1896.08  1903.68  1906.67  1907.18  1996.25
                             2008.16  2011.72  2032.42  2037.40  2047.37
                             2049.73  2136.28  2140.36  2143.21  2144.96
                             2151.78  2152.94  2158.32  2158.76  2168.58
                             2171.25  2173.64  2180.19  2190.14  4318.86
                             4325.30  4337.46  4356.16  4360.90  4362.47
                             4366.54  4369.58  4372.13  4373.82  4375.90
                             4407.39  4439.89  4450.44  4456.48  4458.60
                             4464.53  4465.98  4469.51  4478.39  4486.76
                             4504.63  4506.14

 Zero-point correction=                           0.321427 (Hartree/Particle)
 Thermal correction to Energy=                    0.339600
 Thermal correction to Enthalpy=                  0.340544
 Thermal correction to Gibbs Free Energy=         0.274374
 Sum of electronic and zero-point Energies=           -886.525570
 Sum of electronic and thermal Energies=              -886.507397
 Sum of electronic and thermal Enthalpies=            -886.506453
 Sum of electronic and thermal Free Energies=         -886.572623

                     E (Thermal)             CV                S
                      KCal/Mol        Cal/Mol-Kelvin    Cal/Mol-Kelvin
 Total                  213.102             64.781            139.267
 Electronic               0.000              0.000              0.000
 Translational            0.889              2.981             41.874
 Rotational               0.889              2.981             32.359
 Vibrational            211.325             58.819             65.033
 Vibration     1          0.593              1.986              6.680
 Vibration     2          0.594              1.981              5.304
 Vibration     3          0.596              1.977              4.744
 Vibration     4          0.597              1.974              4.482
 Vibration     5          0.600              1.963              3.895
 Vibration     6          0.606              1.941              3.270
 Vibration     7          0.611              1.925              2.970
 Vibration     8          0.615              1.914              2.819
 Vibration     9          0.622              1.890              2.538
 Vibration    10          0.629              1.869              2.344
 Vibration    11          0.637              1.843              2.154
 Vibration    12          0.641              1.829              2.064
 Vibration    13          0.648              1.807              1.938
 Vibration    14          0.654              1.788              1.844
 Vibration    15          0.661              1.768              1.755
 Vibration    16          0.662              1.763              1.734
 Vibration    17          0.672              1.736              1.623
 Vibration    18          0.677              1.719              1.563
 Vibration    19          0.687              1.690              1.467
 Vibration    20          0.721              1.592              1.204
 Vibration    21          0.736              1.551              1.114
 Vibration    22          0.768              1.466              0.955
 Vibration    23          0.784              1.423              0.887
 Vibration    24          0.809              1.362              0.797
 Vibration    25          0.826              1.320              0.741
 Vibration    26          0.882              1.190              0.594
 Vibration    27          0.978              0.994              0.420

 Optimization completed.
    -- Stationary point found.
 Normal termination of Gaussian 16 at Mon May 15 21:17:45 2023.
