 Gaussian 16, Revision A.03,
 Gaussian 16:  ES64L-G16RevA.03 25-Dec-2016

 -----------------------------
 # opt freq b3lyp/6-31g(2df,p)
 -----------------------------

 -------------------
 Title Card Required
 -------------------
 Symbolic Z-matrix:
 Charge =  0 Multiplicity = 1

 SCF Done:  E(RB3LYP) =  -688.214870872     A.U. after   13 cycles
 SCF Done:  E(RB3LYP) =  -688.215922702     A.U. after   10 cycles
 SCF Done:  E(RB3LYP) =  -688.216081147     A.U. after    9 cycles
 SCF Done:  E(RB3LYP) =  -688.216106148     A.U. after   10 cycles
 SCF Done:  E(RB3LYP) =  -688.216109224     A.U. after    8 cycles
 Optimization completed.
    -- Stationary point found.
 Normal termination of Gaussian 16 at Mon May 15 21:55:54 2023.

 ----------------------------------------------------------------------
 #N Geom=AllCheck Guess=TCheck SCRF=Check GenChk RB3LYP/6-31G(2df,p) Fr
 eq
 ----------------------------------------------------------------------

 Structure from the checkpoint file:  "CCCCCSCtN.chk"
 -------------------
 Title Card Required
 -------------------
 Charge =  0 Multiplicity = 1

                         Standard orientation:
 ---------------------------------------------------------------------
 Center     Atomic      Atomic             Coordinates (Angstroms)
 Number     Number       Type             X           Y           Z
 ---------------------------------------------------------------------
      1          6           0        4.470044    0.486681   -0.000043
      2          6           0        3.223775   -0.401906   -0.000047
      3          6           0        1.917307    0.399909    0.000035
      4          6           0        0.668251   -0.491534    0.000042
      5          6           0       -0.616702    0.336153    0.000115
      6         16           0       -2.068548   -0.813714    0.000026
      7          6           0       -3.330421    0.308378   -0.000292
      8          7           0       -4.218445    1.058180    0.000072
      9          1           0        5.385146   -0.113048   -0.000100
     10          1           0        4.495716    1.133610    0.883749
     11          1           0        4.495660    1.133696   -0.883773
     12          1           0        3.242152   -1.062021    0.876972
     13          1           0        3.242098   -1.061936   -0.877131
     14          1           0        1.894046    1.059680   -0.877852
     15          1           0        1.894101    1.059592    0.877988
     16          1           0        0.682776   -1.146597    0.879989
     17          1           0        0.682731   -1.146517   -0.879966
     18          1           0       -0.691035    0.964886   -0.889299
     19          1           0       -0.691032    0.964740    0.889632
 ---------------------------------------------------------------------

 SCF Done:  E(RB3LYP) =  -688.216109224     A.U. after    1 cycles

 The electronic state is 1-A.
 Alpha  occ. eigenvalues --  -88.92720 -14.33270 -10.24299 -10.23585 -10.21070
 Alpha  occ. eigenvalues --  -10.19943 -10.19390 -10.18340  -7.98834  -5.95374
 Alpha  occ. eigenvalues --   -5.94944  -5.94371  -0.90470  -0.84244  -0.80359
 Alpha  occ. eigenvalues --   -0.75416  -0.68496  -0.61882  -0.59608  -0.50893
 Alpha  occ. eigenvalues --   -0.50370  -0.46212  -0.44119  -0.42953  -0.40965
 Alpha  occ. eigenvalues --   -0.40072  -0.37646  -0.36909  -0.36055  -0.35778
 Alpha  occ. eigenvalues --   -0.34927  -0.34409  -0.33971  -0.31651  -0.25957
 Alpha virt. eigenvalues --   -0.02380   0.03820   0.03913   0.06062   0.07932
 Alpha virt. eigenvalues --    0.09570   0.10182   0.11300   0.13457   0.14865
 Alpha virt. eigenvalues --    0.15619   0.17116   0.17603   0.18143   0.18359

 Mulliken charges:
               1
     1  C   -0.381371
     2  C   -0.167281
     3  C   -0.173371
     4  C   -0.200065
     5  C   -0.213958
     6  S   -0.039561
     7  C    0.165689
     8  N   -0.294364
     9  H    0.117144
    10  H    0.117191
    11  H    0.117191
    12  H    0.100212
    13  H    0.100212
    14  H    0.102391
    15  H    0.102390
    16  H    0.121428
    17  H    0.121432
    18  H    0.152346
    19  H    0.152346
 Sum of Mulliken charges =  -0.00000

 Dipole moment (field-independent basis, Debye):
    X=              4.8510    Y=             -0.9294    Z=             -0.0001  Tot=              4.9392
 Quadrupole moment (field-independent basis, Debye-Ang):
   XX=            -75.9666   YY=            -58.6174   ZZ=            -56.4243
   XY=              5.9003   XZ=              0.0012   YZ=             -0.0005

  Exact polarizability: 125.621  -7.708  78.226  -0.001   0.001  65.804
 Approx polarizability: 159.530 -21.844 128.951  -0.004   0.004 104.089

                      1                      2                      3
                      A                      A                      A
 Frequencies --     37.4613                61.6848                70.4832
 Red. masses --      2.5692                 3.1613                 5.6791
 Frc consts  --      0.0021                 0.0071                 0.0166
 IR Inten    --      2.1788                 0.5150                 3.3622

                      4                      5                      6
                      A                      A                      A
 Frequencies --    115.2182               141.4566               152.9507
 Red. masses --      1.7918                 2.2047                 4.9196
 Frc consts  --      0.0140                 0.0260                 0.0678
 IR Inten    --      0.4337                 0.2416                 3.4724

                      7                      8                      9
                      A                      A                      A
 Frequencies --    235.9326               246.7762               338.2808
 Red. masses --      4.9783                 1.1140                 3.7401
 Frc consts  --      0.1633                 0.0400                 0.2522
 IR Inten    --      0.4983                 0.0017                 0.7034

                     10                     11                     12
                      A                      A                      A
 Frequencies --    427.6944               429.1750               483.0050
 Red. masses --     12.5690                 3.4028                 6.3445
 Frc consts  --      1.3546                 0.3693                 0.8721
 IR Inten    --      3.6133                 0.6115                 1.7236

                     13                     14                     15
                      A                      A                      A
 Frequencies --    703.4502               725.7634               736.3421
 Red. masses --     14.5248                 6.3932                 1.0644
 Frc consts  --      4.2348                 1.9841                 0.3400
 IR Inten    --      1.6799                 6.9477                 4.4776

                     16                     17                     18
                      A                      A                      A
 Frequencies --    759.5348               840.2565               905.5977
 Red. masses --      1.1111                 1.1933                 1.8859
 Frc consts  --      0.3777                 0.4964                 0.9113
 IR Inten    --      0.1088                 1.1619                 0.4058

                     19                     20                     21
                      A                      A                      A
 Frequencies --    963.4786              1011.0223              1043.2754
 Red. masses --      1.2059                 3.8965                 2.9616
 Frc consts  --      0.6596                 2.3466                 1.8992
 IR Inten    --      0.0004                 0.1974                 0.9146

                     22                     23                     24
                      A                      A                      A
 Frequencies --   1065.4548              1078.7096              1126.5949
 Red. masses --      2.4414                 1.1079                 2.2643
 Frc consts  --      1.6329                 0.7595                 1.6933
 IR Inten    --      0.1404                 0.8137                 5.2674

                     25                     26                     27
                      A                      A                      A
 Frequencies --   1222.6164              1239.1111              1283.8002
 Red. masses --      1.6326                 1.2387                 1.2698
 Frc consts  --      1.4378                 1.1206                 1.2331
 IR Inten    --      0.0181                27.2788                 0.0231

                     28                     29                     30
                      A                      A                      A
 Frequencies --   1308.3333              1329.2552              1334.1900
 Red. masses --      1.2988                 1.1209                 1.0613
 Frc consts  --      1.3099                 1.1669                 1.1130
 IR Inten    --      3.8846                 0.0888                 0.6203

                     31                     32                     33
                      A                      A                      A
 Frequencies --   1372.8226              1399.1149              1415.2634
 Red. masses --      1.4011                 1.5674                 1.2380
 Frc consts  --      1.5558                 1.8078                 1.4610
 IR Inten    --     10.3343                 0.3607                 0.8445

                     34                     35                     36
                      A                      A                      A
 Frequencies --   1479.2512              1485.4434              1489.7998
 Red. masses --      1.0905                 1.0673                 1.0701
 Frc consts  --      1.4059                 1.3875                 1.3993
 IR Inten    --      2.6659                 3.1045                 0.6765

                     37                     38                     39
                      A                      A                      A
 Frequencies --   1500.0867              1502.8436              1513.8982
 Red. masses --      1.0398                 1.0761                 1.0926
 Frc consts  --      1.3786                 1.4319                 1.4754
 IR Inten    --      5.5793                 0.1288                 4.1612

                     40                     41                     42
                      A                      A                      A
 Frequencies --   2275.9337              3008.5634              3017.3832
 Red. masses --     12.7342                 1.0576                 1.0590
 Frc consts  --     38.8636                 5.6402                 5.6806
 IR Inten    --     28.4234                 1.9509                16.7466

                     43                     44                     45
                      A                      A                      A
 Frequencies --   3027.8091              3031.5995              3033.7599
 Red. masses --      1.0576                 1.0370                 1.0998
 Frc consts  --      5.7126                 5.6150                 5.9640
 IR Inten    --     30.8269                41.7394                 0.0477

                     46                     47                     48
                      A                      A                      A
 Frequencies --   3052.5320              3072.0273              3074.4299
 Red. masses --      1.1033                 1.1052                 1.0560
 Frc consts  --      6.0572                 6.1453                 5.8809
 IR Inten    --      6.2886                34.9286                10.7573

                     49                     50                     51
                      A                      A                      A
 Frequencies --   3098.0945              3105.6496              3135.8848
 Red. masses --      1.1022                 1.1009                 1.1103
 Frc consts  --      6.2333                 6.2563                 6.4331
 IR Inten    --     52.8519                33.3262                 8.1356

 - Thermochemistry -
 -------------------
 Temperature   298.150 Kelvin.  Pressure   1.00000 Atm.
 Atom     1 has atomic number  6 and mass  12.00000

 Molecular mass:   129.06122 amu.
 Principal axes and moments of inertia in atomic units:
                           1         2         3
     Eigenvalues --   244.274783717.993593906.31811
           X            0.99999   0.00429  -0.00000
           Y           -0.00429   0.99999   0.00000
           Z            0.00000  -0.00000   1.00000
 This molecule is an asymmetric top.
 Rotational symmetry number  1.
 Rotational temperatures (Kelvin)      0.35458     0.02330     0.02217
 Rotational constants (GHZ):           7.38816     0.48541     0.46201
 Zero-point vibrational energy     421738.1 (Joules/Mol)
                                  100.79781 (Kcal/Mol)
 Warning -- explicit consideration of  12 degrees of freedom as
           vibrations may cause significant error
 Vibrational temperatures:     53.90    88.75   101.41   165.77   203.52
          (Kelvin)            220.06   339.45   355.06   486.71   615.36
                              617.49   694.94  1012.11  1044.21  1059.43
                             1092.80  1208.94  1302.95  1386.23  1454.64
                             1501.04  1532.95  1552.02  1620.92  1759.07
                             1782.80  1847.10  1882.40  1912.50  1919.60
                             1975.19  2013.01  2036.25  2128.31  2137.22
                             2143.49  2158.29  2162.26  2178.16  3274.56
                             4328.65  4341.34  4356.34  4361.80  4364.90
                             4391.91  4419.96  4423.42  4457.47  4468.34
                             4511.84

 Zero-point correction=                           0.160632 (Hartree/Particle)
 Thermal correction to Energy=                    0.170942
 Thermal correction to Enthalpy=                  0.171886
 Thermal correction to Gibbs Free Energy=         0.123388
 Sum of electronic and zero-point Energies=           -688.055478
 Sum of electronic and thermal Energies=              -688.045167
 Sum of electronic and thermal Enthalpies=            -688.044223
 Sum of electronic and thermal Free Energies=         -688.092722

                     E (Thermal)             CV                S
                      KCal/Mol        Cal/Mol-Kelvin    Cal/Mol-Kelvin
 Total                  107.268             34.761            102.074
 Electronic               0.000              0.000              0.000
 Translational            0.889              2.981             40.478
 Rotational               0.889              2.981             29.652
 Vibrational            105.490             28.799             31.944
 Vibration     1          0.594              1.982              5.389
 Vibration     2          0.597              1.973              4.403
 Vibration     3          0.598              1.968              4.140
 Vibration     4          0.608              1.937              3.179
 Vibration     5          0.615              1.912              2.784
 Vibration     6          0.619              1.899              2.635
 Vibration     7          0.655              1.786              1.833
 Vibration     8          0.661              1.768              1.753
 Vibration     9          0.719              1.599              1.220
 Vibration    10          0.789              1.410              0.866
 Vibration    11          0.791              1.407              0.861
 Vibration    12          0.839              1.288              0.702

 Optimization completed.
    -- Stationary point found.
 Normal termination of Gaussian 16 at Mon May 15 22:14:11 2023.
