 Gaussian 16, Revision A.03,
 Gaussian 16:  ES64L-G16RevA.03 25-Dec-2016

 -----------------------------
 # opt freq b3lyp/6-31g(2df,p)
 -----------------------------

 -------------------
 Title Card Required
 -------------------
 Symbolic Z-matrix:
 Charge =  0 Multiplicity = 1

 SCF Done:  E(RB3LYP) =  -502.854160031     A.U. after   14 cycles
 SCF Done:  E(RB3LYP) =  -502.857763890     A.U. after   12 cycles
 SCF Done:  E(RB3LYP) =  -502.858353030     A.U. after   12 cycles
 SCF Done:  E(RB3LYP) =  -502.861332057     A.U. after   12 cycles
 SCF Done:  E(RB3LYP) =  -502.862883176     A.U. after   12 cycles
 SCF Done:  E(RB3LYP) =  -502.865292666     A.U. after   13 cycles
 SCF Done:  E(RB3LYP) =  -502.867422398     A.U. after   12 cycles
 SCF Done:  E(RB3LYP) =  -502.869430866     A.U. after   12 cycles
 SCF Done:  E(RB3LYP) =  -502.869998324     A.U. after   12 cycles
 SCF Done:  E(RB3LYP) =  -502.870288146     A.U. after   11 cycles
 SCF Done:  E(RB3LYP) =  -502.870476747     A.U. after   10 cycles
 SCF Done:  E(RB3LYP) =  -502.870646174     A.U. after   11 cycles
 SCF Done:  E(RB3LYP) =  -502.870695610     A.U. after   10 cycles
 SCF Done:  E(RB3LYP) =  -502.870718359     A.U. after   11 cycles
 SCF Done:  E(RB3LYP) =  -502.870728998     A.U. after    9 cycles
 SCF Done:  E(RB3LYP) =  -502.870730386     A.U. after    9 cycles
 SCF Done:  E(RB3LYP) =  -502.870732639     A.U. after    9 cycles
 SCF Done:  E(RB3LYP) =  -502.870732692     A.U. after    8 cycles
 SCF Done:  E(RB3LYP) =  -502.870732750     A.U. after    7 cycles
 Optimization completed.
    -- Stationary point found.
 Normal termination of Gaussian 16 at Tue May 16 01:37:39 2023.

 ----------------------------------------------------------------------
 #N Geom=AllCheck Guess=TCheck SCRF=Check GenChk RB3LYP/6-31G(2df,p) Fr
 eq
 ----------------------------------------------------------------------

 Structure from the checkpoint file:  "CCCqCrCqdOrc1ccccc1.chk"
 -------------------
 Title Card Required
 -------------------
 Charge =  0 Multiplicity = 1

                         Standard orientation:
 ---------------------------------------------------------------------
 Center     Atomic      Atomic             Coordinates (Angstroms)
 Number     Number       Type             X           Y           Z
 ---------------------------------------------------------------------
      1          6           0       -4.085064    0.547303   -0.688386
      2          6           0       -2.912964   -0.413340   -0.468528
      3          6           0       -1.626809    0.270928    0.026555
      4          6           0       -1.781264    0.876646    1.439351
      5          6           0       -0.465072   -0.727052    0.053195
      6          8           0       -0.679718   -1.918020    0.171391
      7          6           0        0.950164   -0.225767   -0.035431
      8          6           0        1.979298   -1.173191    0.058622
      9          6           0        3.309589   -0.785810   -0.020201
     10          6           0        3.634989    0.559733   -0.193708
     11          6           0        2.623039    1.511358   -0.287857
     12          6           0        1.288757    1.121678   -0.210046
     13          1           0       -4.947211    0.014244   -1.100977
     14          1           0       -3.822611    1.344909   -1.393366
     15          1           0       -4.411885    1.021850    0.242111
     16          1           0       -2.689434   -0.932163   -1.407543
     17          1           0       -3.190965   -1.198368    0.241845
     18          1           0       -1.377624    1.081847   -0.668923
     19          1           0       -2.059086    0.097009    2.156310
     20          1           0       -2.558649    1.644948    1.451749
     21          1           0       -0.851811    1.336251    1.786962
     22          1           0        1.701186   -2.211851    0.192616
     23          1           0        4.095819   -1.529927    0.053128
     24          1           0        4.674564    0.864602   -0.255998
     25          1           0        2.871404    2.558655   -0.423651
     26          1           0        0.516068    1.877240   -0.286788
 ---------------------------------------------------------------------

 SCF Done:  E(RB3LYP) =  -502.870732750     A.U. after    1 cycles

 The electronic state is 1-A.
 Alpha  occ. eigenvalues --  -19.12254 -10.26212 -10.19883 -10.19814 -10.19652
 Alpha  occ. eigenvalues --  -10.19518 -10.19323 -10.19259 -10.19084 -10.18213
 Alpha  occ. eigenvalues --  -10.17596 -10.17256  -1.03319  -0.86165  -0.80662
 Alpha  occ. eigenvalues --   -0.76223  -0.75191  -0.72558  -0.65938  -0.63101
 Alpha  occ. eigenvalues --   -0.61085  -0.58145  -0.53852  -0.51318  -0.47504
 Alpha  occ. eigenvalues --   -0.46310  -0.45393  -0.43817  -0.43503  -0.42604
 Alpha  occ. eigenvalues --   -0.41276  -0.40871  -0.38703  -0.37899  -0.36573
 Alpha  occ. eigenvalues --   -0.36467  -0.35111  -0.34854  -0.33878  -0.32512
 Alpha  occ. eigenvalues --   -0.32266  -0.26020  -0.25670  -0.24109
 Alpha virt. eigenvalues --   -0.05232  -0.00850   0.04214   0.08263   0.09748
 Alpha virt. eigenvalues --    0.12132   0.13101   0.14186   0.14821   0.15498
 Alpha virt. eigenvalues --    0.16155   0.16811   0.17095   0.17552   0.18494

 Mulliken charges:
               1
     1  C   -0.400907
     2  C   -0.166262
     3  C   -0.083766
     4  C   -0.398333
     5  C    0.300498
     6  O   -0.326269
     7  C    0.199240
     8  C   -0.153836
     9  C   -0.101385
    10  C   -0.109629
    11  C   -0.099214
    12  C   -0.212464
    13  H    0.115692
    14  H    0.110014
    15  H    0.116924
    16  H    0.101554
    17  H    0.114209
    18  H    0.080270
    19  H    0.131316
    20  H    0.123212
    21  H    0.122014
    22  H    0.124955
    23  H    0.103141
    24  H    0.103385
    25  H    0.100872
    26  H    0.104770
 Sum of Mulliken charges =  -0.00000

 Dipole moment (field-independent basis, Debye):
    X=              0.9977    Y=              2.4422    Z=             -0.1654  Tot=              2.6433
 Quadrupole moment (field-independent basis, Debye-Ang):
   XX=            -64.2664   YY=            -73.4744   ZZ=            -73.1910
   XY=             -1.7945   XZ=             -0.3521   YZ=             -0.1985

  Exact polarizability: 163.312   3.412 119.104  -1.384  -3.578  73.149
 Approx polarizability: 221.717  12.047 212.886  -4.224 -10.846 113.824

                      1                      2                      3
                      A                      A                      A
 Frequencies --     33.5494                62.7963                71.5484
 Red. masses --      4.3958                 2.7863                 2.0536
 Frc consts  --      0.0029                 0.0065                 0.0062
 IR Inten    --      0.9212                 0.0025                 0.3073

                      4                      5                      6
                      A                      A                      A
 Frequencies --    126.9451               148.0285               211.2404
 Red. masses --      3.4865                 3.9947                 1.0734
 Frc consts  --      0.0331                 0.0516                 0.0282
 IR Inten    --      0.8434                 0.3643                 0.1291

                      7                      8                      9
                      A                      A                      A
 Frequencies --    223.9052               244.1101               268.6795
 Red. masses --      1.6634                 3.0992                 2.2671
 Frc consts  --      0.0491                 0.1088                 0.0964
 IR Inten    --      0.6860                 5.5486                 0.4319

                     10                     11                     12
                      A                      A                      A
 Frequencies --    301.7521               352.5288               414.7395
 Red. masses --      2.9277                 3.3756                 2.9846
 Frc consts  --      0.1571                 0.2472                 0.3025
 IR Inten    --      0.2672                 5.4916                 0.0945

                     13                     14                     15
                      A                      A                      A
 Frequencies --    419.2952               461.5676               493.7197
 Red. masses --      3.5756                 3.5129                 3.7703
 Frc consts  --      0.3704                 0.4409                 0.5415
 IR Inten    --      0.8234                 0.6855                 1.5237

                     16                     17                     18
                      A                      A                      A
 Frequencies --    627.3541               663.8081               704.7530
 Red. masses --      6.3787                 5.7612                 3.8627
 Frc consts  --      1.4791                 1.4957                 1.1304
 IR Inten    --      0.1964                13.6503                 0.5531

                     19                     20                     21
                      A                      A                      A
 Frequencies --    722.6370               756.7569               783.4349
 Red. masses --      1.5252                 2.0505                 1.5950
 Frc consts  --      0.4693                 0.6919                 0.5768
 IR Inten    --     46.7091                 2.9635                 0.2636

                     22                     23                     24
                      A                      A                      A
 Frequencies --    819.0739               842.2630               873.8655
 Red. masses --      2.3875                 2.1646                 1.2507
 Frc consts  --      0.9437                 0.9047                 0.5627
 IR Inten    --      7.1934                 4.8714                 0.3638

                     25                     26                     27
                      A                      A                      A
 Frequencies --    951.0139               966.6657               977.4856
 Red. masses --      1.4089                 1.4687                 1.3825
 Frc consts  --      0.7508                 0.8086                 0.7783
 IR Inten    --      1.9944                 1.4966                 6.5401

                     28                     29                     30
                      A                      A                      A
 Frequencies --    980.9612               988.9131              1010.0622
 Red. masses --      1.6101                 2.1564                 1.3098
 Frc consts  --      0.9129                 1.2425                 0.7873
 IR Inten    --     41.1695                46.0567                 1.0071

                     31                     32                     33
                      A                      A                      A
 Frequencies --   1014.7040              1043.6781              1052.8892
 Red. masses --      5.8278                 2.7102                 2.1014
 Frc consts  --      3.5354                 1.7393                 1.3725
 IR Inten    --      0.1355                 0.1999                 0.2364

                     34                     35                     36
                      A                      A                      A
 Frequencies --   1093.3136              1109.4288              1132.6565
 Red. masses --      1.6260                 1.6121                 2.2183
 Frc consts  --      1.1451                 1.1691                 1.6767
 IR Inten    --      1.9173                 7.8772                 1.9773

                     37                     38                     39
                      A                      A                      A
 Frequencies --   1179.6258              1183.8041              1205.2925
 Red. masses --      1.7600                 1.1637                 1.2220
 Frc consts  --      1.4429                 0.9608                 1.0459
 IR Inten    --     41.7829                 2.1917                 5.2980

                     40                     41                     42
                      A                      A                      A
 Frequencies --   1230.8458              1287.2602              1318.1412
 Red. masses --      2.3903                 1.2533                 1.6600
 Frc consts  --      2.1335                 1.2236                 1.6994
 IR Inten    --    105.8186                 1.9517                31.2040

                     43                     44                     45
                      A                      A                      A
 Frequencies --   1334.6237              1346.5801              1351.4161
 Red. masses --      1.6371                 1.8030                 2.0363
 Frc consts  --      1.7181                 1.9262                 2.1911
 IR Inten    --     12.4145                 1.9921                 1.8238

                     46                     47                     48
                      A                      A                      A
 Frequencies --   1393.7447              1403.5954              1414.6949
 Red. masses --      1.5397                 1.2281                 1.2222
 Frc consts  --      1.7621                 1.4255                 1.4412
 IR Inten    --     22.2696                 5.6464                 1.3691

                     49                     50                     51
                      A                      A                      A
 Frequencies --   1475.9227              1481.2652              1495.0222
 Red. masses --      2.2242                 1.0643                 1.0445
 Frc consts  --      2.8546                 1.3759                 1.3755
 IR Inten    --     17.3142                 0.4163                 6.1635

                     52                     53                     54
                      A                      A                      A
 Frequencies --   1501.3277              1506.9266              1511.4052
 Red. masses --      1.0510                 1.0718                 1.0483
 Frc consts  --      1.3958                 1.4340                 1.4110
 IR Inten    --      4.6501                 5.0674                 4.3785

                     55                     56                     57
                      A                      A                      A
 Frequencies --   1519.8917              1618.0928              1637.1694
 Red. masses --      2.1559                 5.5852                 5.6750
 Frc consts  --      2.9343                 8.6158                 8.9620
 IR Inten    --      0.2479                 7.6157                16.6136

                     58                     59                     60
                      A                      A                      A
 Frequencies --   1761.7551              3028.0273              3030.4217
 Red. masses --     11.8153                 1.0694                 1.0482
 Frc consts  --     21.6066                 5.7769                 5.6716
 IR Inten    --    134.2184                14.1743                24.5071

                     61                     62                     63
                      A                      A                      A
 Frequencies --   3040.5489              3043.5678              3076.9412
 Red. masses --      1.0382                 1.0603                 1.0978
 Frc consts  --      5.6549                 5.7871                 6.1239
 IR Inten    --     27.4394                 7.9464                 1.0373

                     64                     65                     66
                      A                      A                      A
 Frequencies --   3099.2558              3105.2644              3111.6991
 Red. masses --      1.0997                 1.1018                 1.1012
 Frc consts  --      6.2237                 6.2594                 6.2820
 IR Inten    --     37.9943                46.2463                27.5812

                     67                     68                     69
                      A                      A                      A
 Frequencies --   3119.2288              3171.3429              3182.0558
 Red. masses --      1.1013                 1.0842                 1.0882
 Frc consts  --      6.3130                 6.4247                 6.4921
 IR Inten    --     25.4225                 0.1535                 9.9110

                     70                     71                     72
                      A                      A                      A
 Frequencies --   3193.1973              3204.2664              3211.5508
 Red. masses --      1.0930                 1.0936                 1.0928
 Frc consts  --      6.5661                 6.6156                 6.6408
 IR Inten    --     23.4056                10.6144                 6.0376

 - Thermochemistry -
 -------------------
 Temperature   298.150 Kelvin.  Pressure   1.00000 Atm.
 Atom     1 has atomic number  6 and mass  12.00000

 Molecular mass:   162.10447 amu.
 Principal axes and moments of inertia in atomic units:
                           1         2         3
     Eigenvalues --   829.932873656.053524115.64827
           X            0.99994  -0.01072   0.00196
           Y            0.01070   0.99989   0.00996
           Z           -0.00207  -0.00994   0.99995
 This molecule is an asymmetric top.
 Rotational symmetry number  1.
 Warning -- assumption of classical behavior for rotation
           may cause significant error
 Rotational temperatures (Kelvin)      0.10436     0.02369     0.02105
 Rotational constants (GHZ):           2.17456     0.49363     0.43851
 Zero-point vibrational energy     584530.7 (Joules/Mol)
                                  139.70618 (Kcal/Mol)
 Warning -- explicit consideration of  15 degrees of freedom as
           vibrations may cause significant error
 Vibrational temperatures:     48.27    90.35   102.94   182.65   212.98
          (Kelvin)            303.93   322.15   351.22   386.57   434.15
                              507.21   596.72   603.27   664.09   710.35
                              902.62   955.07  1013.98  1039.71  1088.80
                             1127.19  1178.46  1211.83  1257.30  1368.30
                             1390.82  1406.38  1411.38  1422.83  1453.25
                             1459.93  1501.62  1514.87  1573.03  1596.22
                             1629.64  1697.22  1703.23  1734.15  1770.91
                             1852.08  1896.51  1920.23  1937.43  1944.39
                             2005.29  2019.46  2035.43  2123.52  2131.21
                             2151.00  2160.08  2168.13  2174.57  2186.79
                             2328.07  2355.52  2534.77  4356.66  4360.10
                             4374.67  4379.02  4427.03  4459.14  4467.78
                             4477.04  4487.87  4562.86  4578.27  4594.30
                             4610.22  4620.71

 Zero-point correction=                           0.222636 (Hartree/Particle)
 Thermal correction to Energy=                    0.234589
 Thermal correction to Enthalpy=                  0.235534
 Thermal correction to Gibbs Free Energy=         0.183850
 Sum of electronic and zero-point Energies=           -502.648097
 Sum of electronic and thermal Energies=              -502.636143
 Sum of electronic and thermal Enthalpies=            -502.635199
 Sum of electronic and thermal Free Energies=         -502.686882

                     E (Thermal)             CV                S
                      KCal/Mol        Cal/Mol-Kelvin    Cal/Mol-Kelvin
 Total                  147.207             44.876            108.776
 Electronic               0.000              0.000              0.000
 Translational            0.889              2.981             41.158
 Rotational               0.889              2.981             30.902
 Vibrational            145.430             38.914             36.716
 Vibration     1          0.594              1.983              5.608
 Vibration     2          0.597              1.972              4.367
 Vibration     3          0.598              1.968              4.110
 Vibration     4          0.611              1.926              2.992
 Vibration     5          0.617              1.905              2.697
 Vibration     6          0.643              1.824              2.033
 Vibration     7          0.649              1.805              1.927
 Vibration     8          0.659              1.773              1.773
 Vibration     9          0.673              1.731              1.605
 Vibration    10          0.694              1.670              1.407
 Vibration    11          0.729              1.570              1.155
 Vibration    12          0.778              1.438              0.910
 Vibration    13          0.782              1.428              0.894
 Vibration    14          0.819              1.335              0.762
 Vibration    15          0.849              1.264              0.674

 Optimization completed.
    -- Stationary point found.
 Normal termination of Gaussian 16 at Tue May 16 02:48:17 2023.
