 Gaussian 16, Revision A.03,
 Gaussian 16:  ES64L-G16RevA.03 25-Dec-2016

 -----------------------------
 # opt freq b3lyp/6-31g(2df,p)
 -----------------------------

 -------------------
 Title Card Required
 -------------------
 Symbolic Z-matrix:
 Charge =  0 Multiplicity = 1

 SCF Done:  E(RB3LYP) =  -972.425972710     A.U. after   14 cycles
 SCF Done:  E(RB3LYP) =  -972.431605893     A.U. after   13 cycles
 SCF Done:  E(RB3LYP) =  -972.436551361     A.U. after   13 cycles
 SCF Done:  E(RB3LYP) =  -972.439156694     A.U. after   12 cycles
 SCF Done:  E(RB3LYP) =  -972.440760484     A.U. after   12 cycles
 SCF Done:  E(RB3LYP) =  -972.441272541     A.U. after   12 cycles
 SCF Done:  E(RB3LYP) =  -972.441513966     A.U. after   12 cycles
 SCF Done:  E(RB3LYP) =  -972.441556405     A.U. after   11 cycles
 SCF Done:  E(RB3LYP) =  -972.441578745     A.U. after   11 cycles
 SCF Done:  E(RB3LYP) =  -972.441591267     A.U. after   10 cycles
 SCF Done:  E(RB3LYP) =  -972.441596519     A.U. after    8 cycles
 SCF Done:  E(RB3LYP) =  -972.441597601     A.U. after    8 cycles
 SCF Done:  E(RB3LYP) =  -972.441597889     A.U. after    8 cycles
 SCF Done:  E(RB3LYP) =  -972.441598008     A.U. after    7 cycles
 Optimization completed.
    -- Stationary point found.
 Normal termination of Gaussian 16 at Mon May 15 16:13:20 2023.

 ----------------------------------------------------------------------
 #N Geom=AllCheck Guess=TCheck SCRF=Check GenChk RB3LYP/6-31G(2df,p) Fr
 eq
 ----------------------------------------------------------------------

 Structure from the checkpoint file:  "CCCSCqCqdNrOrc1ccccn1.chk"
 -------------------
 Title Card Required
 -------------------
 Charge =  0 Multiplicity = 1

                         Standard orientation:
 ---------------------------------------------------------------------
 Center     Atomic      Atomic             Coordinates (Angstroms)
 Number     Number       Type             X           Y           Z
 ---------------------------------------------------------------------
      1          6           0        5.096206   -0.814760    0.093952
      2          6           0        3.693469   -1.212801   -0.377012
      3          6           0        2.611637   -0.304662    0.214802
      4         16           0        0.965735   -0.840325   -0.386296
      5          6           0       -0.138715    0.375910    0.469256
      6          6           0        0.141446    1.813873    0.008824
      7          7           0       -0.293793    2.396479   -1.019293
      8          8           0        0.999540    2.501408    0.820145
      9          6           0       -1.567872   -0.079976    0.255930
     10          6           0       -2.326369   -0.551728    1.329556
     11          6           0       -3.630583   -0.973025    1.098638
     12          6           0       -4.136200   -0.911063   -0.195179
     13          6           0       -3.305892   -0.426017   -1.201115
     14          7           0       -2.052672   -0.022039   -0.989678
     15          1           0        5.854818   -1.471385   -0.342287
     16          1           0        5.184534   -0.881611    1.183855
     17          1           0        5.336019    0.213147   -0.197942
     18          1           0        3.488211   -2.253013   -0.098510
     19          1           0        3.642078   -1.165944   -1.470733
     20          1           0        2.781738    0.734689   -0.079505
     21          1           0        2.629453   -0.361913    1.310494
     22          1           0        0.075086    0.291520    1.541164
     23          1           0       -0.899376    1.759459   -1.538218
     24          1           0        1.209119    1.974688    1.596896
     25          1           0       -1.899279   -0.589791    2.325620
     26          1           0       -4.240368   -1.342840    1.916179
     27          1           0       -5.146818   -1.228856   -0.424068
     28          1           0       -3.660801   -0.359817   -2.226500
 ---------------------------------------------------------------------

 SCF Done:  E(RB3LYP) =  -972.441598008     A.U. after    1 cycles

 The electronic state is 1-A.
 Alpha  occ. eigenvalues --  -88.87322 -19.17088 -14.33879 -14.28227 -10.26954
 Alpha  occ. eigenvalues --  -10.24379 -10.23941 -10.23099 -10.21756 -10.21573
 Alpha  occ. eigenvalues --  -10.20915 -10.20652 -10.19350 -10.18210  -7.93596
 Alpha  occ. eigenvalues --   -5.90102  -5.89754  -5.89078  -1.06505  -0.95850
 Alpha  occ. eigenvalues --   -0.87869  -0.82371  -0.81562  -0.79771  -0.75302
 Alpha  occ. eigenvalues --   -0.70666  -0.64582  -0.63886  -0.62147  -0.59902
 Alpha  occ. eigenvalues --   -0.58885  -0.53512  -0.51278  -0.48984  -0.47667
 Alpha  occ. eigenvalues --   -0.46687  -0.45504  -0.44470  -0.43927  -0.42607
 Alpha  occ. eigenvalues --   -0.41605  -0.40847  -0.40208  -0.39234  -0.38746
 Alpha  occ. eigenvalues --   -0.36520  -0.35435  -0.34312  -0.34118  -0.31533
 Alpha  occ. eigenvalues --   -0.29945  -0.28026  -0.27018  -0.26196  -0.25021
 Alpha  occ. eigenvalues --   -0.22028
 Alpha virt. eigenvalues --   -0.04095  -0.02604   0.00966   0.04597   0.05733
 Alpha virt. eigenvalues --    0.08128   0.08681   0.10614   0.11490   0.13025
 Alpha virt. eigenvalues --    0.13368   0.13938   0.14579   0.14949   0.15853

 Mulliken charges:
               1
     1  C   -0.389473
     2  C   -0.178841
     3  C   -0.199324
     4  S   -0.113896
     5  C   -0.243507
     6  C    0.372656
     7  N   -0.468155
     8  O   -0.384602
     9  C    0.335194
    10  C   -0.178132
    11  C   -0.068235
    12  C   -0.130966
    13  C   -0.003468
    14  N   -0.288035
    15  H    0.121244
    16  H    0.115583
    17  H    0.124055
    18  H    0.115496
    19  H    0.123607
    20  H    0.147980
    21  H    0.105189
    22  H    0.093791
    23  H    0.246593
    24  H    0.292926
    25  H    0.104588
    26  H    0.115485
    27  H    0.111339
    28  H    0.120910
 Sum of Mulliken charges =  -0.00000

 Dipole moment (field-independent basis, Debye):
    X=             -1.0536    Y=             -3.3412    Z=              3.6592  Tot=              5.0659
 Quadrupole moment (field-independent basis, Debye-Ang):
   XX=            -70.0108   YY=           -105.1671   ZZ=            -84.7583
   XY=              2.4862   XZ=              1.0477   YZ=              3.7406

  Exact polarizability: 193.486  10.159 108.694   7.619  -5.799 126.780
 Approx polarizability: 252.005  18.548 172.783  16.964 -13.444 231.988

                      1                      2                      3
                      A                      A                      A
 Frequencies --     24.3869                40.0545                58.4449
 Red. masses --      4.7356                 4.2232                 4.3538
 Frc consts  --      0.0017                 0.0040                 0.0088
 IR Inten    --      2.2987                 0.3389                 0.3982

                      4                      5                      6
                      A                      A                      A
 Frequencies --     64.5260                70.7652               110.0920
 Red. masses --      2.0163                 3.7350                 5.0376
 Frc consts  --      0.0049                 0.0110                 0.0360
 IR Inten    --      0.4550                 0.1771                 0.5802

                      7                      8                      9
                      A                      A                      A
 Frequencies --    114.5840               170.2491               188.2735
 Red. masses --      2.8925                 5.9553                 6.5312
 Frc consts  --      0.0224                 0.1017                 0.1364
 IR Inten    --      1.2941                 3.2182                 5.2546

                     10                     11                     12
                      A                      A                      A
 Frequencies --    232.7622               243.9392               277.1044
 Red. masses --      4.4863                 1.1157                 4.3688
 Frc consts  --      0.1432                 0.0391                 0.1977
 IR Inten    --      0.7884                 0.0582                 2.1564

                     13                     14                     15
                      A                      A                      A
 Frequencies --    336.0574               354.9282               357.4105
 Red. masses --      3.4824                 1.6196                 2.3829
 Frc consts  --      0.2317                 0.1202                 0.1793
 IR Inten    --      8.2311                50.3855                31.4400

                     16                     17                     18
                      A                      A                      A
 Frequencies --    375.6292               419.2495               518.8083
 Red. masses --      5.5089                 3.5960                 3.3829
 Frc consts  --      0.4580                 0.3724                 0.5365
 IR Inten    --      1.3438                 3.1886                 3.0572

                     19                     20                     21
                      A                      A                      A
 Frequencies --    587.4991               639.4768               643.6677
 Red. masses --      6.3384                 7.5456                 5.6334
 Frc consts  --      1.2890                 1.8180                 1.3751
 IR Inten    --      2.9814                 2.3169                 6.0868

                     22                     23                     24
                      A                      A                      A
 Frequencies --    694.2253               752.2673               754.2340
 Red. masses --      6.6057                 2.5551                 1.3778
 Frc consts  --      1.8757                 0.8519                 0.4618
 IR Inten    --      3.9044                 2.8791                 3.9590

                     25                     26                     27
                      A                      A                      A
 Frequencies --    770.0123               773.6136               824.2370
 Red. masses --      3.8432                 1.5204                 3.9788
 Frc consts  --      1.3426                 0.5361                 1.5926
 IR Inten    --      0.0992                25.7020                 5.6722

                     28                     29                     30
                      A                      A                      A
 Frequencies --    870.8299               873.9003               902.5171
 Red. masses --      1.9018                 1.7792                 2.2601
 Frc consts  --      0.8497                 0.8006                 1.0847
 IR Inten    --      1.1122                 0.3240                 9.3177

                     31                     32                     33
                      A                      A                      A
 Frequencies --    912.4214               925.7847               937.8531
 Red. masses --      1.5588                 1.9698                 1.4014
 Frc consts  --      0.7646                 0.9947                 0.7262
 IR Inten    --      2.5112                17.2677                40.0247

                     34                     35                     36
                      A                      A                      A
 Frequencies --    983.8847              1007.7197              1010.4365
 Red. masses --      1.4153                 1.3104                 7.1294
 Frc consts  --      0.8072                 0.7841                 4.2887
 IR Inten    --      0.0549                 0.0138                 6.8609

                     37                     38                     39
                      A                      A                      A
 Frequencies --   1043.6724              1064.0719              1073.2501
 Red. masses --      2.7895                 1.1818                 2.3035
 Frc consts  --      1.7902                 0.7884                 1.5633
 IR Inten    --      0.4400                 1.0985                 5.3144

                     40                     41                     42
                      A                      A                      A
 Frequencies --   1097.3092              1107.0346              1121.4942
 Red. masses --      2.1487                 1.9780                 1.5886
 Frc consts  --      1.5244                 1.4282                 1.1772
 IR Inten    --     98.8277                10.8863                 5.9657

                     43                     44                     45
                      A                      A                      A
 Frequencies --   1174.0850              1179.9146              1212.7521
 Red. masses --      1.2061                 1.1233                 1.3466
 Frc consts  --      0.9795                 0.9214                 1.1669
 IR Inten    --     17.0056                 1.1384                48.8760

                     46                     47                     48
                      A                      A                      A
 Frequencies --   1244.4733              1248.2469              1268.0367
 Red. masses --      1.4581                 1.7748                 1.2753
 Frc consts  --      1.3305                 1.6293                 1.2082
 IR Inten    --      9.2152                48.5890                30.2538

                     49                     50                     51
                      A                      A                      A
 Frequencies --   1289.5398              1317.9524              1323.3707
 Red. masses --      3.0000                 2.1203                 1.1007
 Frc consts  --      2.9393                 2.1700                 1.1357
 IR Inten    --     26.9326                13.6875                 1.4498

                     52                     53                     54
                      A                      A                      A
 Frequencies --   1361.0966              1370.8454              1397.7416
 Red. masses --      1.4193                 1.4327                 1.9083
 Frc consts  --      1.5491                 1.5862                 2.1966
 IR Inten    --    100.3852                 0.5054               181.9677

                     55                     56                     57
                      A                      A                      A
 Frequencies --   1412.0446              1466.6856              1483.9370
 Red. masses --      1.2271                 2.2113                 1.0826
 Frc consts  --      1.4415                 2.8027                 1.4046
 IR Inten    --      0.4978                29.2752                11.5890

                     58                     59                     60
                      A                      A                      A
 Frequencies --   1493.2835              1499.2071              1505.6842
 Red. masses --      1.0573                 1.0398                 2.1974
 Frc consts  --      1.3891                 1.3770                 2.9351
 IR Inten    --      0.0924                 6.0932                20.3466

                     61                     62                     63
                      A                      A                      A
 Frequencies --   1509.6172              1615.5744              1629.4804
 Red. masses --      1.0816                 5.9205                 5.6056
 Frc consts  --      1.4523                 9.1047                 8.7695
 IR Inten    --      2.9427                14.6145                45.9132

                     64                     65                     66
                      A                      A                      A
 Frequencies --   1768.7008              3016.0107              3022.5721
 Red. masses --      7.7149                 1.0628                 1.0837
 Frc consts  --     14.2198                 5.6961                 5.8333
 IR Inten    --    114.6584                23.2885                16.4221

                     67                     68                     69
                      A                      A                      A
 Frequencies --   3032.0918              3037.0244              3066.7599
 Red. masses --      1.0387                 1.0570                 1.0995
 Frc consts  --      5.6265                 5.7438                 6.0928
 IR Inten    --     23.2075                28.3754                 2.4143

                     70                     71                     72
                      A                      A                      A
 Frequencies --   3091.9005              3105.0906              3108.4079
 Red. masses --      1.1014                 1.1030                 1.1014
 Frc consts  --      6.2039                 6.2660                 6.2703
 IR Inten    --      0.5910                45.2717                32.0770

                     73                     74                     75
                      A                      A                      A
 Frequencies --   3160.1146              3179.3474              3193.4879
 Red. masses --      1.0888                 1.0866                 1.0926
 Frc consts  --      6.4062                 6.4714                 6.5650
 IR Inten    --     17.6437                 3.1413                13.9927

                     76                     77                     78
                      A                      A                      A
 Frequencies --   3206.1906              3481.7698              3840.3985
 Red. masses --      1.0977                 1.0738                 1.0659
 Frc consts  --      6.6484                 7.6693                 9.2620
 IR Inten    --     12.7361                50.1835                28.2382

 - Thermochemistry -
 -------------------
 Temperature   298.150 Kelvin.  Pressure   1.00000 Atm.
 Atom     1 has atomic number  6 and mass  12.00000

 Molecular mass:   210.08268 amu.
 Principal axes and moments of inertia in atomic units:
                           1         2         3
     Eigenvalues --  1604.689345631.509836306.55607
           X            0.99997  -0.00712   0.00157
           Y            0.00713   0.99996  -0.00508
           Z           -0.00154   0.00509   0.99999
 This molecule is an asymmetric top.
 Rotational symmetry number  1.
 Warning -- assumption of classical behavior for rotation
           may cause significant error
 Rotational temperatures (Kelvin)      0.05398     0.01538     0.01373
 Rotational constants (GHZ):           1.12467     0.32047     0.28617
 Zero-point vibrational energy     601973.5 (Joules/Mol)
                                  143.87513 (Kcal/Mol)
 Warning -- explicit consideration of  19 degrees of freedom as
           vibrations may cause significant error
 Vibrational temperatures:     35.09    57.63    84.09    92.84   101.82
          (Kelvin)            158.40   164.86   244.95   270.88   334.89
                              350.97   398.69   483.51   510.66   514.23
                              540.45   603.21   746.45   845.28   920.06
                              926.09   998.84  1082.34  1085.17  1107.88
                             1113.06  1185.89  1252.93  1257.35  1298.52
                             1312.77  1332.00  1349.36  1415.59  1449.88
                             1453.79  1501.61  1530.96  1544.17  1578.78
                             1592.78  1613.58  1689.25  1697.63  1744.88
                             1790.52  1795.95  1824.42  1855.36  1896.24
                             1904.04  1958.31  1972.34  2011.04  2031.62
                             2110.23  2135.05  2148.50  2157.02  2166.34
                             2172.00  2324.45  2344.46  2544.77  4339.37
                             4348.81  4362.50  4369.60  4412.38  4448.56
                             4467.53  4472.31  4546.70  4574.37  4594.72
                             4612.99  5009.49  5525.48

 Zero-point correction=                           0.229280 (Hartree/Particle)
 Thermal correction to Energy=                    0.244036
 Thermal correction to Enthalpy=                  0.244981
 Thermal correction to Gibbs Free Energy=         0.185176
 Sum of electronic and zero-point Energies=           -972.212318
 Sum of electronic and thermal Energies=              -972.197562
 Sum of electronic and thermal Enthalpies=            -972.196617
 Sum of electronic and thermal Free Energies=         -972.256422

                     E (Thermal)             CV                S
                      KCal/Mol        Cal/Mol-Kelvin    Cal/Mol-Kelvin
 Total                  153.135             53.368            125.869
 Electronic               0.000              0.000              0.000
 Translational            0.889              2.981             41.931
 Rotational               0.889              2.981             32.411
 Vibrational            151.358             47.407             51.528
 Vibration     1          0.593              1.985              6.240
 Vibration     2          0.594              1.981              5.256
 Vibration     3          0.596              1.974              4.509
 Vibration     4          0.597              1.971              4.314
 Vibration     5          0.598              1.968              4.132
 Vibration     6          0.606              1.941              3.267
 Vibration     7          0.608              1.937              3.190
 Vibration     8          0.625              1.879              2.433
 Vibration     9          0.633              1.856              2.245
 Vibration    10          0.654              1.791              1.858
 Vibration    11          0.659              1.773              1.774
 Vibration    12          0.678              1.716              1.551
 Vibration    13          0.717              1.603              1.231
 Vibration    14          0.731              1.565              1.144
 Vibration    15          0.733              1.560              1.133
 Vibration    16          0.746              1.522              1.057
 Vibration    17          0.782              1.428              0.895
 Vibration    18          0.874              1.208              0.613
 Vibration    19          0.945              1.058              0.472

                           ! Non-Optimized Parameters !
 Normal termination of Gaussian 16 at Mon May 15 17:43:01 2023.
