 Gaussian 16, Revision A.03,
 Gaussian 16:  ES64L-G16RevA.03 25-Dec-2016

 -----------------------------
 # opt freq b3lyp/6-31g(2df,p)
 -----------------------------

 -------------------
 Title Card Required
 -------------------
 Symbolic Z-matrix:
 Charge =  0 Multiplicity = 1

 SCF Done:  E(RB3LYP) =  -701.391126782     A.U. after   17 cycles
 SCF Done:  E(RB3LYP) =  -701.429329135     A.U. after   13 cycles
 SCF Done:  E(RB3LYP) =  -701.447631738     A.U. after   13 cycles
 SCF Done:  E(RB3LYP) =  -701.451794394     A.U. after   13 cycles
 SCF Done:  E(RB3LYP) =  -701.451442875     A.U. after   13 cycles
 SCF Done:  E(RB3LYP) =  -701.453687298     A.U. after   13 cycles
 SCF Done:  E(RB3LYP) =  -701.454013774     A.U. after   12 cycles
 SCF Done:  E(RB3LYP) =  -701.454066111     A.U. after   11 cycles
 SCF Done:  E(RB3LYP) =  -701.454079845     A.U. after    9 cycles
 SCF Done:  E(RB3LYP) =  -701.454084110     A.U. after    9 cycles
 SCF Done:  E(RB3LYP) =  -701.454085848     A.U. after    8 cycles
 SCF Done:  E(RB3LYP) =  -701.454086843     A.U. after    8 cycles
 SCF Done:  E(RB3LYP) =  -701.454087058     A.U. after    7 cycles
 Optimization completed.
    -- Stationary point found.
 Normal termination of Gaussian 16 at Mon May 15 15:58:35 2023.

 ----------------------------------------------------------------------
 #N Geom=AllCheck Guess=TCheck SCRF=Check GenChk RB3LYP/6-31G(2df,p) Fr
 eq
 ----------------------------------------------------------------------

 Structure from the checkpoint file:  "CCOCqdOrC1dCq[NH]rNCqOCrdN[CH]1.chk"
 -------------------
 Title Card Required
 -------------------
 Charge =  0 Multiplicity = 1

                         Standard orientation:
 ---------------------------------------------------------------------
 Center     Atomic      Atomic             Coordinates (Angstroms)
 Number     Number       Type             X           Y           Z
 ---------------------------------------------------------------------
      1          6           0        4.562031   -1.313509    0.001531
      2          6           0        3.850725    0.025849   -0.001159
      3          8           0        2.431879   -0.231596   -0.001036
      4          6           0        1.637196    0.865591   -0.000223
      5          8           0        2.085627    1.990391    0.000154
      6          6           0        0.195701    0.540275   -0.000017
      7          6           0       -0.357554   -0.810976   -0.000159
      8          7           0        0.151179   -1.981063    0.000062
      9          7           0       -1.781485   -0.784040   -0.000584
     10          6           0       -2.527748    0.336303    0.000004
     11          8           0       -3.857855    0.244943    0.000137
     12          6           0       -4.488145   -1.033174    0.000034
     13          7           0       -2.028654    1.543698    0.000621
     14          6           0       -0.674823    1.604384    0.000442
     15          1           0        5.644764   -1.156592    0.001989
     16          1           0        4.300524   -1.898555   -0.884872
     17          1           0        4.299368   -1.895378    0.889699
     18          1           0        4.100378    0.622413   -0.883802
     19          1           0        4.099997    0.625843    0.879215
     20          1           0        1.164369   -1.916617    0.000012
     21          1           0       -2.188591   -1.708655   -0.000695
     22          1           0       -5.558692   -0.831136    0.000339
     23          1           0       -4.230974   -1.606445    0.898281
     24          1           0       -4.231456   -1.606115   -0.898548
     25          1           0       -0.248478    2.602712    0.000926
 ---------------------------------------------------------------------

 SCF Done:  E(RB3LYP) =  -701.454087058     A.U. after    1 cycles

 The electronic state is 1-A.
 Alpha  occ. eigenvalues --  -19.21466 -19.18025 -19.11534 -14.39746 -14.32247
 Alpha  occ. eigenvalues --  -14.28640 -10.33787 -10.30270 -10.27416 -10.26796
 Alpha  occ. eigenvalues --  -10.23941 -10.23570 -10.19730 -10.18534  -1.12641
 Alpha  occ. eigenvalues --   -1.09657  -1.00627  -1.00396  -0.92819  -0.87328
 Alpha  occ. eigenvalues --   -0.79686  -0.77415  -0.74907  -0.67194  -0.65819
 Alpha  occ. eigenvalues --   -0.64083  -0.60216  -0.57360  -0.54435  -0.52060
 Alpha  occ. eigenvalues --   -0.51626  -0.49232  -0.49016  -0.47906  -0.45629
 Alpha  occ. eigenvalues --   -0.45253  -0.45145  -0.41969  -0.41958  -0.39906
 Alpha  occ. eigenvalues --   -0.38964  -0.38192  -0.37695  -0.36145  -0.35250
 Alpha  occ. eigenvalues --   -0.33264  -0.29725  -0.29470  -0.28675  -0.26770
 Alpha  occ. eigenvalues --   -0.26471  -0.21612
 Alpha virt. eigenvalues --   -0.04939   0.00936   0.04602   0.05912   0.09002
 Alpha virt. eigenvalues --    0.09606   0.11838   0.12589   0.13334   0.13597
 Alpha virt. eigenvalues --    0.14096   0.14898   0.15895   0.16546   0.16658

 Mulliken charges:
               1
     1  C   -0.397724
     2  C   -0.045757
     3  O   -0.260639
     4  C    0.439234
     5  O   -0.391136
     6  C   -0.061564
     7  C    0.301940
     8  N   -0.588886
     9  N   -0.416129
    10  C    0.554240
    11  O   -0.226074
    12  C   -0.273738
    13  N   -0.380636
    14  C   -0.002274
    15  H    0.124878
    16  H    0.131615
    17  H    0.131622
    18  H    0.124861
    19  H    0.124995
    20  H    0.237163
    21  H    0.267734
    22  H    0.164502
    23  H    0.146698
    24  H    0.146693
    25  H    0.148384
 Sum of Mulliken charges =  -0.00000

 Dipole moment (field-independent basis, Debye):
    X=             -2.0205    Y=             -3.2482    Z=             -0.0012  Tot=              3.8253
 Quadrupole moment (field-independent basis, Debye-Ang):
   XX=            -56.7538   YY=            -91.1667   ZZ=            -79.5819
   XY=              7.4525   XZ=              0.0022   YZ=             -0.0010

  Exact polarizability: 179.165  -0.698 121.756  -0.007   0.007  65.860
 Approx polarizability: 232.515 -11.687 218.589  -0.012   0.026 104.210

                      1                      2                      3
                      A                      A                      A
 Frequencies --     31.8998                56.4020                74.4547
 Red. masses --      4.0845                 2.8700                 4.5565
 Frc consts  --      0.0024                 0.0054                 0.0149
 IR Inten    --      0.7337                 2.4996                 0.1971

                      4                      5                      6
                      A                      A                      A
 Frequencies --    100.4475               110.7268               139.6072
 Red. masses --      3.8380                 3.0135                 3.9566
 Frc consts  --      0.0228                 0.0218                 0.0454
 IR Inten    --      1.5051                 0.3543                 0.1773

                      7                      8                      9
                      A                      A                      A
 Frequencies --    154.4292               214.9370               230.7680
 Red. masses --      3.1791                 3.7527                 1.2251
 Frc consts  --      0.0447                 0.1021                 0.0384
 IR Inten    --      4.6223                 0.9483                 0.4350

                     10                     11                     12
                      A                      A                      A
 Frequencies --    259.3732               265.3452               303.5142
 Red. masses --      1.2685                 4.8138                 5.7260
 Frc consts  --      0.0503                 0.1997                 0.3108
 IR Inten    --      0.0318                 0.9533                11.5755

                     13                     14                     15
                      A                      A                      A
 Frequencies --    316.7094               373.6585               417.2385
 Red. masses --      5.9459                 5.4160                 4.0128
 Frc consts  --      0.3514                 0.4455                 0.4116
 IR Inten    --      4.8580                 6.9551                 3.5463

                     16                     17                     18
                      A                      A                      A
 Frequencies --    431.3219               488.0909               560.1283
 Red. masses --      2.6952                 5.3322                 8.2793
 Frc consts  --      0.2954                 0.7484                 1.5305
 IR Inten    --      7.6946                 2.1319                 0.7851

                     19                     20                     21
                      A                      A                      A
 Frequencies --    588.3551               640.5206               649.0751
 Red. masses --      6.3588                 1.3957                 5.1290
 Frc consts  --      1.2969                 0.3374                 1.2731
 IR Inten    --      4.1599                68.2110                15.1661

                     22                     23                     24
                      A                      A                      A
 Frequencies --    728.6291               761.8801               766.9442
 Red. masses --      5.0199                 6.2085                 8.8793
 Frc consts  --      1.5702                 2.1233                 3.0772
 IR Inten    --      3.7337                 5.3961                 1.6822

                     25                     26                     27
                      A                      A                      A
 Frequencies --    791.0722               809.1730               847.7677
 Red. masses --      3.3441                 1.1797                 7.1382
 Frc consts  --      1.2330                 0.4551                 3.0227
 IR Inten    --     11.7006                 0.0002                 4.2362

                     28                     29                     30
                      A                      A                      A
 Frequencies --    865.7737               892.7041              1008.7888
 Red. masses --      1.2971                 2.5034                 4.4941
 Frc consts  --      0.5728                 1.1754                 2.6946
 IR Inten    --     57.7132                 1.1478                48.8151

                     31                     32                     33
                      A                      A                      A
 Frequencies --   1031.0680              1035.5852              1068.2995
 Red. masses --      1.4577                 3.7527                 4.2586
 Frc consts  --      0.9131                 2.3712                 2.8635
 IR Inten    --      1.9598                 7.0383               198.8110

                     34                     35                     36
                      A                      A                      A
 Frequencies --   1095.8904              1134.0533              1149.1756
 Red. masses --      3.2660                 2.2866                 4.4407
 Frc consts  --      2.3110                 1.7326                 3.4552
 IR Inten    --    153.7482                48.8583               173.6530

                     37                     38                     39
                      A                      A                      A
 Frequencies --   1171.3498              1182.4287              1209.4923
 Red. masses --      1.2717                 1.5611                 1.3590
 Frc consts  --      1.0281                 1.2860                 1.1713
 IR Inten    --      0.9358                 3.6013                 6.0419

                     40                     41                     42
                      A                      A                      A
 Frequencies --   1254.3619              1290.0812              1298.2162
 Red. masses --      2.6050                 1.0973                 1.9242
 Frc consts  --      2.4149                 1.0760                 1.9107
 IR Inten    --    706.5859                 0.9297                74.7985

                     43                     44                     45
                      A                      A                      A
 Frequencies --   1327.8649              1345.6744              1380.2917
 Red. masses --      1.6473                 3.9413                 3.0782
 Frc consts  --      1.7113                 4.2050                 3.4554
 IR Inten    --     21.7540                64.1405                15.2738

                     46                     47                     48
                      A                      A                      A
 Frequencies --   1400.0696              1422.6460              1471.0860
 Red. masses --      1.4416                 1.4777                 1.2171
 Frc consts  --      1.6650                 1.7621                 1.5518
 IR Inten    --      3.7426                11.3056                80.5825

                     49                     50                     51
                      A                      A                      A
 Frequencies --   1486.8251              1496.5991              1500.3547
 Red. masses --      1.0397                 1.0470                 1.0448
 Frc consts  --      1.3542                 1.3817                 1.3858
 IR Inten    --      4.7587                 5.5533                 8.0921

                     52                     53                     54
                      A                      A                      A
 Frequencies --   1503.5660              1519.3420              1531.7730
 Red. masses --      1.0650                 1.1482                 3.4319
 Frc consts  --      1.4185                 1.5617                 4.7443
 IR Inten    --     59.9909                 4.5666                99.1185

                     55                     56                     57
                      A                      A                      A
 Frequencies --   1584.6624              1614.0983              1715.5752
 Red. masses --      4.1752                 6.1135                 8.3580
 Frc consts  --      6.1773                 9.3842                14.4935
 IR Inten    --   1011.4522                89.5038               389.7386

                     58                     59                     60
                      A                      A                      A
 Frequencies --   1780.0768              3020.2665              3044.8592
 Red. masses --     11.9449                 1.0347                 1.0351
 Frc consts  --     22.3002                 5.5610                 5.6541
 IR Inten    --    280.6489                26.8558                14.1691

                     61                     62                     63
                      A                      A                      A
 Frequencies --   3055.1821              3090.2555              3092.4566
 Red. masses --      1.0576                 1.1064                 1.1062
 Frc consts  --      5.8161                 6.2252                 6.2327
 IR Inten    --     17.5806                20.7310                 5.2534

                     64                     65                     66
                      A                      A                      A
 Frequencies --   3119.4674              3124.9744              3158.2768
 Red. masses --      1.1009                 1.1044                 1.0996
 Frc consts  --      6.3117                 6.3542                 6.4623
 IR Inten    --     23.9920                32.2161                 9.8087

                     67                     68                     69
                      A                      A                      A
 Frequencies --   3191.5145              3560.5816              3606.5677
 Red. masses --      1.0904                 1.0726                 1.0761
 Frc consts  --      6.5440                 8.0120                 8.2467
 IR Inten    --      1.7675                50.5513                40.7453

 - Thermochemistry -
 -------------------
 Temperature   298.150 Kelvin.  Pressure   1.00000 Atm.
 Atom     1 has atomic number  6 and mass  12.00000

 Molecular mass:   197.08004 amu.
 Principal axes and moments of inertia in atomic units:
                           1         2         3
     Eigenvalues --  1004.976805255.142166225.97829
           X            1.00000   0.00088   0.00001
           Y           -0.00088   1.00000  -0.00002
           Z           -0.00001   0.00002   1.00000
 This molecule is an asymmetric top.
 Rotational symmetry number  1.
 Warning -- assumption of classical behavior for rotation
           may cause significant error
 Rotational temperatures (Kelvin)      0.08618     0.01648     0.01391
 Rotational constants (GHZ):           1.79580     0.34342     0.28987
 Zero-point vibrational energy     520044.5 (Joules/Mol)
                                  124.29361 (Kcal/Mol)
 Warning -- explicit consideration of  19 degrees of freedom as
           vibrations may cause significant error
 Vibrational temperatures:     45.90    81.15   107.12   144.52   159.31
          (Kelvin)            200.86   222.19   309.25   332.02   373.18
                              381.77   436.69   455.67   537.61   600.31
                              620.58   702.25   805.90   846.51   921.57
                              933.87  1048.33  1096.18  1103.46  1138.18
                             1164.22  1219.75  1245.66  1284.40  1451.42
                             1483.48  1489.98  1537.04  1576.74  1631.65
                             1653.41  1685.31  1701.25  1740.19  1804.75
                             1856.14  1867.84  1910.50  1936.13  1985.93
                             2014.39  2046.87  2116.56  2139.21  2153.27
                             2158.68  2163.30  2185.99  2203.88  2279.98
                             2322.33  2468.33  2561.13  4345.49  4380.87
                             4395.73  4446.19  4449.36  4488.22  4496.14
                             4544.06  4591.88  5122.88  5189.05

 Zero-point correction=                           0.198074 (Hartree/Particle)
 Thermal correction to Energy=                    0.211695
 Thermal correction to Enthalpy=                  0.212639
 Thermal correction to Gibbs Free Energy=         0.156686
 Sum of electronic and zero-point Energies=           -701.256013
 Sum of electronic and thermal Energies=              -701.242392
 Sum of electronic and thermal Enthalpies=            -701.241448
 Sum of electronic and thermal Free Energies=         -701.297401

                     E (Thermal)             CV                S
                      KCal/Mol        Cal/Mol-Kelvin    Cal/Mol-Kelvin
 Total                  132.840             49.333            117.763
 Electronic               0.000              0.000              0.000
 Translational            0.889              2.981             41.740
 Rotational               0.889              2.981             31.864
 Vibrational            131.063             43.371             44.158
 Vibration     1          0.594              1.983              5.708
 Vibration     2          0.596              1.975              4.579
 Vibration     3          0.599              1.966              4.032
 Vibration     4          0.604              1.949              3.446
 Vibration     5          0.607              1.941              3.256
 Vibration     6          0.615              1.914              2.809
 Vibration     7          0.620              1.898              2.617
 Vibration     8          0.645              1.818              2.001
 Vibration     9          0.652              1.794              1.873
 Vibration    10          0.668              1.747              1.666
 Vibration    11          0.671              1.737              1.626
 Vibration    12          0.695              1.667              1.397
 Vibration    13          0.704              1.642              1.327
 Vibration    14          0.745              1.526              1.065
 Vibration    15          0.780              1.433              0.901
 Vibration    16          0.792              1.402              0.854
 Vibration    17          0.844              1.276              0.689
 Vibration    18          0.916              1.118              0.524
 Vibration    19          0.946              1.057              0.470

                           ! Non-Optimized Parameters !
 Normal termination of Gaussian 16 at Mon May 15 17:07:17 2023.
