 Gaussian 16, Revision A.03,
 Gaussian 16:  ES64L-G16RevA.03 25-Dec-2016

 -----------------------------
 # opt freq b3lyp/6-31g(2df,p)
 -----------------------------

 -------------------
 Title Card Required
 -------------------
 Symbolic Z-matrix:
 Charge =  0 Multiplicity = 1

 SCF Done:  E(RB3LYP) =  -1331.69999018     A.U. after   16 cycles
 SCF Done:  E(RB3LYP) =  -1331.72023193     A.U. after   13 cycles
 SCF Done:  E(RB3LYP) =  -1331.72421639     A.U. after   14 cycles
 SCF Done:  E(RB3LYP) =  -1331.72415499     A.U. after   13 cycles
 SCF Done:  E(RB3LYP) =  -1331.72595191     A.U. after   13 cycles
 SCF Done:  E(RB3LYP) =  -1331.72741566     A.U. after   13 cycles
 SCF Done:  E(RB3LYP) =  -1331.72665497     A.U. after   14 cycles
 SCF Done:  E(RB3LYP) =  -1331.72795371     A.U. after   13 cycles
 SCF Done:  E(RB3LYP) =  -1331.72803531     A.U. after   12 cycles
 SCF Done:  E(RB3LYP) =  -1331.72805706     A.U. after   10 cycles
 SCF Done:  E(RB3LYP) =  -1331.72805807     A.U. after    8 cycles
 SCF Done:  E(RB3LYP) =  -1331.72805832     A.U. after    8 cycles
 SCF Done:  E(RB3LYP) =  -1331.72805841     A.U. after    7 cycles
 Optimization completed.
    -- Stationary point found.
 Normal termination of Gaussian 16 at Mon May 15 16:52:41 2023.

 ----------------------------------------------------------------------
 #N Geom=AllCheck Guess=TCheck SCRF=Check GenChk RB3LYP/6-31G(2df,p) Fr
 eq
 ----------------------------------------------------------------------

 Structure from the checkpoint file:  "CCOCqdSrSCqdOrc1ccco1.chk"
 -------------------
 Title Card Required
 -------------------
 Charge =  0 Multiplicity = 1

                         Standard orientation:
 ---------------------------------------------------------------------
 Center     Atomic      Atomic             Coordinates (Angstroms)
 Number     Number       Type             X           Y           Z
 ---------------------------------------------------------------------
      1          6           0       -4.934925   -1.334474    0.405001
      2          6           0       -4.034948   -0.190387   -0.017997
      3          8           0       -2.670343   -0.627905    0.181222
      4          6           0       -1.671745    0.185947   -0.151440
      5         16           0       -1.788322    1.703342   -0.735597
      6         16           0       -0.184242   -0.783961    0.096782
      7          6           0        1.133272    0.473993    0.413118
      8          8           0        0.933633    1.555034    0.886997
      9          6           0        2.445165   -0.074695    0.087764
     10          6           0        2.870627   -1.174668   -0.614055
     11          6           0        4.291402   -1.144880   -0.584039
     12          6           0        4.624305   -0.030797    0.130820
     13          8           0        3.524993    0.627352    0.542972
     14          1           0       -5.980623   -1.042365    0.271746
     15          1           0       -4.778556   -1.587648    1.456927
     16          1           0       -4.746018   -2.226248   -0.198624
     17          1           0       -4.197092    0.712627    0.577625
     18          1           0       -4.162184    0.078384   -1.071101
     19          1           0        2.240638   -1.900050   -1.103026
     20          1           0        4.972890   -1.848226   -1.034928
     21          1           0        5.566775    0.407330    0.417874
 ---------------------------------------------------------------------

 SCF Done:  E(RB3LYP) =  -1331.72805841     A.U. after    1 cycles

 The electronic state is 1-A.
 Alpha  occ. eigenvalues --  -88.89896 -88.84435 -19.22971 -19.20684 -19.14862
 Alpha  occ. eigenvalues --  -10.32105 -10.30563 -10.26109 -10.25847 -10.25170
 Alpha  occ. eigenvalues --  -10.21620 -10.20759 -10.19245  -7.96317  -7.91068
 Alpha  occ. eigenvalues --   -5.92735  -5.92372  -5.91964  -5.87440  -5.87185
 Alpha  occ. eigenvalues --   -5.86653  -1.13689  -1.10229  -1.06190  -0.83070
 Alpha  occ. eigenvalues --   -0.82036  -0.79021  -0.76245  -0.73131  -0.66676
 Alpha  occ. eigenvalues --   -0.63610  -0.62139  -0.57439  -0.56876  -0.52244
 Alpha  occ. eigenvalues --   -0.49967  -0.48334  -0.47238  -0.46449  -0.45378
 Alpha  occ. eigenvalues --   -0.44175  -0.42479  -0.42071  -0.41130  -0.40674
 Alpha  occ. eigenvalues --   -0.40119  -0.39246  -0.37765  -0.35674  -0.33889
 Alpha  occ. eigenvalues --   -0.30419  -0.28554  -0.26683  -0.25731  -0.24757
 Alpha  occ. eigenvalues --   -0.22453
 Alpha virt. eigenvalues --   -0.07209  -0.04347   0.01836   0.02729   0.05143
 Alpha virt. eigenvalues --    0.08456   0.09446   0.10155   0.10433   0.12688
 Alpha virt. eigenvalues --    0.13357   0.14086   0.14291   0.14602   0.16096

 Mulliken charges:
               1
     1  C   -0.391395
     2  C   -0.048195
     3  O   -0.208758
     4  C    0.314978
     5  S   -0.338061
     6  S   -0.135209
     7  C    0.213834
     8  O   -0.269211
     9  C    0.299398
    10  C   -0.233843
    11  C   -0.178896
    12  C    0.007717
    13  O   -0.152491
    14  H    0.129354
    15  H    0.137577
    16  H    0.134954
    17  H    0.143130
    18  H    0.138982
    19  H    0.151538
    20  H    0.130190
    21  H    0.154407
 Sum of Mulliken charges =  -0.00000

 Dipole moment (field-independent basis, Debye):
    X=              0.9404    Y=             -3.4969    Z=             -0.7126  Tot=              3.6906
 Quadrupole moment (field-independent basis, Debye-Ang):
   XX=            -56.0773   YY=            -92.8749   ZZ=            -89.5371
   XY=             -1.0809   XZ=             -3.0230   YZ=              1.5551

  Exact polarizability: 215.269  -9.732 126.879  -0.992   3.701  84.591
 Approx polarizability: 273.969 -16.622 261.261  -0.619  11.838 151.169

                      1                      2                      3
                      A                      A                      A
 Frequencies --     23.5090                28.6240                60.9451
 Red. masses --      6.2664                 7.4500                 5.2064
 Frc consts  --      0.0020                 0.0036                 0.0114
 IR Inten    --      0.9065                 1.4124                 0.5720

                      4                      5                      6
                      A                      A                      A
 Frequencies --     78.1920               102.3555               131.9762
 Red. masses --      2.5138                 6.7509                 2.5282
 Frc consts  --      0.0091                 0.0417                 0.0259
 IR Inten    --      0.4698                 0.7946                 1.4967

                      7                      8                      9
                      A                      A                      A
 Frequencies --    158.4902               165.4047               188.3758
 Red. masses --      5.0460                 8.0316                 6.1890
 Frc consts  --      0.0747                 0.1295                 0.1294
 IR Inten    --      2.4637                 0.2296                 0.3063

                     10                     11                     12
                      A                      A                      A
 Frequencies --    254.9505               261.6597               290.5307
 Red. masses --      1.2871                 7.3495                 8.8425
 Frc consts  --      0.0493                 0.2965                 0.4398
 IR Inten    --      0.5984                 2.8469                 4.2063

                     13                     14                     15
                      A                      A                      A
 Frequencies --    366.6338               435.9360               451.0462
 Red. masses --      3.9656                10.7328                11.7665
 Frc consts  --      0.3141                 1.2017                 1.4104
 IR Inten    --      5.2299                 1.2836                18.7856

                     16                     17                     18
                      A                      A                      A
 Frequencies --    551.8772               583.1866               601.4459
 Red. masses --     10.0968                 9.5896                 6.7762
 Frc consts  --      1.8118                 1.9216                 1.4442
 IR Inten    --     20.0414                 4.9217                 9.6582

                     19                     20                     21
                      A                      A                      A
 Frequencies --    608.6698               686.5147               720.3905
 Red. masses --      3.4374                 8.3187                 6.7979
 Frc consts  --      0.7503                 2.3100                 2.0786
 IR Inten    --      8.6675                14.8313                 9.5635

                     22                     23                     24
                      A                      A                      A
 Frequencies --    787.1946               810.5201               831.4978
 Red. masses --      1.2370                 1.0912                 8.5286
 Frc consts  --      0.4516                 0.4224                 3.4742
 IR Inten    --     44.4987                 0.9902               382.8627

                     25                     26                     27
                      A                      A                      A
 Frequencies --    845.7283               861.1714               890.1630
 Red. masses --      1.3335                 3.3779                 1.3537
 Frc consts  --      0.5619                 1.4760                 0.6320
 IR Inten    --      4.1123                 8.4005                 1.7273

                     28                     29                     30
                      A                      A                      A
 Frequencies --    902.9290               963.3696              1018.1262
 Red. masses --      6.1770                 3.8377                 2.6015
 Frc consts  --      2.9671                 2.0985                 1.5889
 IR Inten    --     25.4308                95.6652                36.5544

                     31                     32                     33
                      A                      A                      A
 Frequencies --   1047.7752              1060.7034              1117.1340
 Red. masses --      1.5736                 3.6872                 2.3085
 Frc consts  --      1.0179                 2.4442                 1.6974
 IR Inten    --    233.3522               182.8264                25.3113

                     34                     35                     36
                      A                      A                      A
 Frequencies --   1129.9222              1174.9853              1202.3173
 Red. masses --      2.4233                 1.5352                 2.1187
 Frc consts  --      1.8229                 1.2487                 1.8045
 IR Inten    --    104.2784                 3.3598                 6.4786

                     37                     38                     39
                      A                      A                      A
 Frequencies --   1253.7018              1270.9472              1274.9271
 Red. masses --      1.9051                 6.3262                 6.5165
 Frc consts  --      1.7642                 6.0207                 6.2408
 IR Inten    --      1.4739                79.3027               470.3009

                     40                     41                     42
                      A                      A                      A
 Frequencies --   1284.4713              1394.8428              1419.5496
 Red. masses --      1.1062                 1.3442                 1.3641
 Frc consts  --      1.0753                 1.5408                 1.6196
 IR Inten    --      3.0242                 4.5393                 2.9896

                     43                     44                     45
                      A                      A                      A
 Frequencies --   1423.0961              1485.0774              1492.1053
 Red. masses --      3.0471                 1.0393                 4.3975
 Frc consts  --      3.6359                 1.3505                 5.7684
 IR Inten    --     39.8747                 5.3794                89.6438

                     46                     47                     48
                      A                      A                      A
 Frequencies --   1493.4411              1513.5280              1597.6298
 Red. masses --      1.0576                 1.0805                 5.4417
 Frc consts  --      1.3898                 1.4583                 8.1835
 IR Inten    --      2.3733                 3.4385                16.9597

                     49                     50                     51
                      A                      A                      A
 Frequencies --   1809.8711              3049.2512              3056.5013
 Red. masses --     13.1895                 1.0351                 1.0571
 Frc consts  --     25.4550                 5.6702                 5.8187
 IR Inten    --    205.7166                15.3982                 6.2444

                     52                     53                     54
                      A                      A                      A
 Frequencies --   3099.3788              3124.1106              3132.0725
 Red. masses --      1.1067                 1.1010                 1.1043
 Frc consts  --      6.2634                 6.3314                 6.3829
 IR Inten    --      2.7337                15.6518                23.8178

                     55                     56                     57
                      A                      A                      A
 Frequencies --   3260.0876              3273.7039              3285.1778
 Red. masses --      1.0890                 1.0967                 1.1079
 Frc consts  --      6.8192                 6.9252                 7.0451
 IR Inten    --      2.2981                 1.0266                 0.1402

 - Thermochemistry -
 -------------------
 Temperature   298.150 Kelvin.  Pressure   1.00000 Atm.
 Atom     1 has atomic number  6 and mass  12.00000

 Molecular mass:   215.99149 amu.
 Principal axes and moments of inertia in atomic units:
                           1         2         3
     Eigenvalues --  1042.218796597.179227248.24605
           X            0.99996   0.00660  -0.00610
           Y           -0.00652   0.99990   0.01243
           Z            0.00619  -0.01239   0.99990
 This molecule is an asymmetric top.
 Rotational symmetry number  1.
 Warning -- assumption of classical behavior for rotation
           may cause significant error
 Rotational temperatures (Kelvin)      0.08311     0.01313     0.01195
 Rotational constants (GHZ):           1.73163     0.27356     0.24899
 Zero-point vibrational energy     391105.4 (Joules/Mol)
                                   93.47644 (Kcal/Mol)
 Warning -- explicit consideration of  19 degrees of freedom as
           vibrations may cause significant error
 Vibrational temperatures:     33.82    41.18    87.69   112.50   147.27
          (Kelvin)            189.88   228.03   237.98   271.03   366.82
                              376.47   418.01   527.50   627.21   648.95
                              794.03   839.08   865.35   875.74   987.74
                             1036.48  1132.60  1166.16  1196.34  1216.81
                             1239.03  1280.75  1299.11  1386.07  1464.86
                             1507.51  1526.12  1607.31  1625.71  1690.54
                             1729.87  1803.80  1828.61  1834.34  1848.07
                             2006.87  2042.42  2047.52  2136.70  2146.81
                             2148.73  2177.63  2298.63  2604.00  4387.19
                             4397.62  4459.31  4494.90  4506.35  4690.54
                             4710.13  4726.64

 Zero-point correction=                           0.148964 (Hartree/Particle)
 Thermal correction to Energy=                    0.162327
 Thermal correction to Enthalpy=                  0.163271
 Thermal correction to Gibbs Free Energy=         0.105988
 Sum of electronic and zero-point Energies=          -1331.579094
 Sum of electronic and thermal Energies=             -1331.565732
 Sum of electronic and thermal Enthalpies=           -1331.564788
 Sum of electronic and thermal Free Energies=        -1331.622071

                     E (Thermal)             CV                S
                      KCal/Mol        Cal/Mol-Kelvin    Cal/Mol-Kelvin
 Total                  101.862             46.495            120.562
 Electronic               0.000              0.000              0.000
 Translational            0.889              2.981             42.013
 Rotational               0.889              2.981             32.277
 Vibrational            100.084             40.534             46.272
 Vibration     1          0.593              1.985              6.313
 Vibration     2          0.593              1.984              5.923
 Vibration     3          0.597              1.973              4.426
 Vibration     4          0.599              1.964              3.936
 Vibration     5          0.604              1.947              3.409
 Vibration     6          0.612              1.921              2.917
 Vibration     7          0.621              1.893              2.568
 Vibration     8          0.624              1.885              2.487
 Vibration     9          0.633              1.856              2.244
 Vibration    10          0.665              1.754              1.696
 Vibration    11          0.669              1.743              1.651
 Vibration    12          0.686              1.691              1.471
 Vibration    13          0.740              1.541              1.094
 Vibration    14          0.796              1.392              0.839
 Vibration    15          0.810              1.359              0.793
 Vibration    16          0.907              1.136              0.540
 Vibration    17          0.940              1.068              0.479
 Vibration    18          0.960              1.029              0.447
 Vibration    19          0.968              1.013              0.435

 Optimization completed.
    -- Stationary point found.
 Normal termination of Gaussian 16 at Mon May 15 17:41:00 2023.
