 Gaussian 16, Revision A.03,
 Gaussian 16:  ES64L-G16RevA.03 25-Dec-2016

 -----------------------------
 # opt freq b3lyp/6-31g(2df,p)
 -----------------------------

 -------------------
 Title Card Required
 -------------------
 Symbolic Z-matrix:
 Charge =  0 Multiplicity = 1

 SCF Done:  E(RB3LYP) =  -737.258462112     A.U. after   15 cycles
 SCF Done:  E(RB3LYP) =  -737.264118225     A.U. after   14 cycles
 SCF Done:  E(RB3LYP) =  -737.262986103     A.U. after   14 cycles
 SCF Done:  E(RB3LYP) =  -737.264272019     A.U. after   14 cycles
 SCF Done:  E(RB3LYP) =  -737.263988165     A.U. after   14 cycles
 SCF Done:  E(RB3LYP) =  -737.264596166     A.U. after   13 cycles
 SCF Done:  E(RB3LYP) =  -737.265057435     A.U. after   12 cycles
 SCF Done:  E(RB3LYP) =  -737.265082344     A.U. after   12 cycles
 SCF Done:  E(RB3LYP) =  -737.265093348     A.U. after   12 cycles
 SCF Done:  E(RB3LYP) =  -737.265097364     A.U. after   12 cycles
 SCF Done:  E(RB3LYP) =  -737.265098699     A.U. after    9 cycles
 SCF Done:  E(RB3LYP) =  -737.265099162     A.U. after    8 cycles
 SCF Done:  E(RB3LYP) =  -737.265099349     A.U. after    8 cycles
 SCF Done:  E(RB3LYP) =  -737.265099418     A.U. after    8 cycles
 SCF Done:  E(RB3LYP) =  -737.265099441     A.U. after    7 cycles
 SCF Done:  E(RB3LYP) =  -737.265099451     A.U. after    6 cycles
 Optimization completed.
    -- Stationary point found.
 Normal termination of Gaussian 16 at Mon May 15 19:02:36 2023.

 ----------------------------------------------------------------------
 #N Geom=AllCheck Guess=TCheck SCRF=Check GenChk RB3LYP/6-31G(2df,p) Fr
 eq
 ----------------------------------------------------------------------

 Structure from the checkpoint file:  "CCOCqdOrCn1ccnc1[N+]qdOr[O-].chk"
 -------------------
 Title Card Required
 -------------------
 Charge =  0 Multiplicity = 1

                         Standard orientation:
 ---------------------------------------------------------------------
 Center     Atomic      Atomic             Coordinates (Angstroms)
 Number     Number       Type             X           Y           Z
 ---------------------------------------------------------------------
      1          6           0       -4.754011    0.232749   -0.225182
      2          6           0       -3.486391    0.019075    0.576949
      3          8           0       -2.430482   -0.318052   -0.355320
      4          6           0       -1.221706   -0.513496    0.178564
      5          8           0       -0.951178   -0.458714    1.347778
      6          6           0       -0.229044   -0.859333   -0.931843
      7          7           0        1.140397   -0.835362   -0.451168
      8          6           0        1.905866   -1.946220   -0.219520
      9          6           0        3.105515   -1.498085    0.287709
     10          7           0        3.099867   -0.140854    0.385150
     11          6           0        1.919169    0.221623   -0.052305
     12          7           0        1.483989    1.593735   -0.123698
     13          8           0        2.256766    2.453873    0.252801
     14          8           0        0.350438    1.798950   -0.572024
     15          1           0       -5.575820    0.491718    0.448670
     16          1           0       -5.029872   -0.673085   -0.772274
     17          1           0       -4.628064    1.046873   -0.943972
     18          1           0       -3.586121   -0.795782    1.300404
     19          1           0       -3.187179    0.916509    1.125585
     20          1           0       -0.361155   -0.166622   -1.760418
     21          1           0       -0.438919   -1.871334   -1.288918
     22          1           0        1.533407   -2.934551   -0.435172
     23          1           0        3.963196   -2.082694    0.581987
 ---------------------------------------------------------------------

 SCF Done:  E(RB3LYP) =  -737.265099451     A.U. after    1 cycles

 The electronic state is 1-A.
 Alpha  occ. eigenvalues --  -19.19894 -19.17248 -19.17125 -19.14307 -14.56999
 Alpha  occ. eigenvalues --  -14.42659 -14.34147 -10.32534 -10.29257 -10.26388
 Alpha  occ. eigenvalues --  -10.25324 -10.24273 -10.22344 -10.19487  -1.22879
 Alpha  occ. eigenvalues --   -1.11971  -1.05773  -1.05086  -1.03221  -0.92304
 Alpha  occ. eigenvalues --   -0.81538  -0.80046  -0.76403  -0.70532  -0.66167
 Alpha  occ. eigenvalues --   -0.63194  -0.59717  -0.57510  -0.55591  -0.54752
 Alpha  occ. eigenvalues --   -0.52409  -0.51524  -0.50914  -0.50316  -0.47938
 Alpha  occ. eigenvalues --   -0.47126  -0.46087  -0.44733  -0.43559  -0.41182
 Alpha  occ. eigenvalues --   -0.41109  -0.40271  -0.37021  -0.36537  -0.31704
 Alpha  occ. eigenvalues --   -0.31189  -0.30992  -0.30643  -0.30324  -0.28828
 Alpha  occ. eigenvalues --   -0.28786  -0.25857
 Alpha virt. eigenvalues --   -0.08500  -0.00064   0.02016   0.05529   0.07837
 Alpha virt. eigenvalues --    0.09280   0.10118   0.11502   0.12634   0.13559
 Alpha virt. eigenvalues --    0.14480   0.14759   0.15213   0.16681   0.18283

 Mulliken charges:
               1
     1  C   -0.393584
     2  C   -0.048025
     3  O   -0.243209
     4  C    0.474076
     5  O   -0.351275
     6  C   -0.320098
     7  N   -0.033372
     8  C   -0.098595
     9  C   -0.091338
    10  N   -0.270983
    11  C    0.465587
    12  N    0.366945
    13  O   -0.324444
    14  O   -0.403304
    15  H    0.129581
    16  H    0.130235
    17  H    0.137822
    18  H    0.126390
    19  H    0.138097
    20  H    0.179972
    21  H    0.146715
    22  H    0.150245
    23  H    0.132560
 Sum of Mulliken charges =  -0.00000

 Dipole moment (field-independent basis, Debye):
    X=             -3.6255    Y=             -4.7954    Z=             -2.2281  Tot=              6.4113
 Quadrupole moment (field-independent basis, Debye-Ang):
   XX=            -74.7292   YY=            -78.4652   ZZ=            -80.6104
   XY=             -9.3029   XZ=             -3.2751   YZ=              1.8839

  Exact polarizability: 135.508  -8.244 118.030  12.531   2.640  74.932
 Approx polarizability: 196.215  -4.410 202.097  35.180   7.531 130.693

                      1                      2                      3
                      A                      A                      A
 Frequencies --     21.2541                36.8978                53.7137
 Red. masses --      4.2962                 6.6017                 3.2716
 Frc consts  --      0.0011                 0.0053                 0.0056
 IR Inten    --      1.3635                 0.4006                 0.8566

                      4                      5                      6
                      A                      A                      A
 Frequencies --     65.9824                98.5562               134.8848
 Red. masses --      5.7619                 8.9946                 2.4695
 Frc consts  --      0.0148                 0.0515                 0.0265
 IR Inten    --      0.3938                 0.4649                 1.6508

                      7                      8                      9
                      A                      A                      A
 Frequencies --    161.5141               195.3623               252.6219
 Red. masses --      4.5820                 5.7998                 1.6137
 Frc consts  --      0.0704                 0.1304                 0.0607
 IR Inten    --      2.5206                 0.4565                 0.7600

                     10                     11                     12
                      A                      A                      A
 Frequencies --    268.9729               305.9286               325.2114
 Red. masses --      2.9237                 5.4880                 5.9825
 Frc consts  --      0.1246                 0.3026                 0.3728
 IR Inten    --      5.1926                 0.3331                11.8575

                     13                     14                     15
                      A                      A                      A
 Frequencies --    358.1113               397.6370               458.9055
 Red. masses --      3.0985                 3.6363                 8.3569
 Frc consts  --      0.2341                 0.3388                 1.0369
 IR Inten    --      4.6763                 4.4993                 1.5353

                     16                     17                     18
                      A                      A                      A
 Frequencies --    549.9061               601.0408               636.5005
 Red. masses --      3.8913                 4.0608                 4.2251
 Frc consts  --      0.6933                 0.8643                 1.0085
 IR Inten    --      1.1960                 6.1020                 1.3205

                     19                     20                     21
                      A                      A                      A
 Frequencies --    665.9134               711.4048               767.2850
 Red. masses --      7.2567                 5.1621                 1.7239
 Frc consts  --      1.8959                 1.5393                 0.5980
 IR Inten    --      9.8953                17.9081                13.7378

                     22                     23                     24
                      A                      A                      A
 Frequencies --    779.4563               791.3218               807.8892
 Red. masses --      5.3186                 3.5945                 1.0925
 Frc consts  --      1.9038                 1.3262                 0.4201
 IR Inten    --     22.3821                 9.2449                 0.8578

                     25                     26                     27
                      A                      A                      A
 Frequencies --    853.6680               872.5859               891.5133
 Red. masses --     10.4951                 1.3438                 2.7688
 Frc consts  --      4.5062                 0.6028                 1.2966
 IR Inten    --     39.8413                 6.2127                 9.4507

                     28                     29                     30
                      A                      A                      A
 Frequencies --    924.7466               946.7466               985.5034
 Red. masses --      6.4188                 5.2138                 2.3842
 Frc consts  --      3.2341                 2.7534                 1.3643
 IR Inten    --      5.2319                 0.4933                 1.5262

                     31                     32                     33
                      A                      A                      A
 Frequencies --   1049.8874              1105.9276              1135.1374
 Red. masses --      3.1991                 1.4177                 2.1922
 Frc consts  --      2.0776                 1.0216                 1.6643
 IR Inten    --     58.7187                 5.3912                11.7126

                     34                     35                     36
                      A                      A                      A
 Frequencies --   1162.2693              1182.1478              1203.2500
 Red. masses --      2.0958                 1.5610                 2.5347
 Frc consts  --      1.6680                 1.2853                 2.1621
 IR Inten    --     20.4278                 3.5083                23.6496

                     37                     38                     39
                      A                      A                      A
 Frequencies --   1232.2077              1242.3338              1293.7563
 Red. masses --      2.1255                 3.8234                 1.0978
 Frc consts  --      1.9014                 3.4768                 1.0826
 IR Inten    --     70.5515               482.4592                 1.6887

                     40                     41                     42
                      A                      A                      A
 Frequencies --   1321.8762              1375.8504              1387.8353
 Red. masses --      2.2981                 1.6888                 3.4360
 Frc consts  --      2.3660                 1.8835                 3.8992
 IR Inten    --     46.4570                42.1615                 5.4735

                     43                     44                     45
                      A                      A                      A
 Frequencies --   1397.1095              1403.9155              1425.6594
 Red. masses --      6.3401                 1.4064                 2.0682
 Frc consts  --      7.2914                 1.6332                 2.4766
 IR Inten    --    320.5481                34.4643                 3.1181

                     46                     47                     48
                      A                      A                      A
 Frequencies --   1426.8908              1458.5088              1485.8455
 Red. masses --      2.1448                 1.2667                 1.0394
 Frc consts  --      2.5728                 1.5876                 1.3519
 IR Inten    --      9.0539                19.3879                 5.0069

                     49                     50                     51
                      A                      A                      A
 Frequencies --   1496.0927              1517.9838              1525.6001
 Red. masses --      1.0494                 1.1023                 3.8822
 Frc consts  --      1.3839                 1.4966                 5.3237
 IR Inten    --      2.2165                13.5133               129.1993

                     52                     53                     54
                      A                      A                      A
 Frequencies --   1536.0805              1630.9618              1839.1048
 Red. masses --      4.9863                13.2923                11.9158
 Frc consts  --      6.9319                20.8324                23.7458
 IR Inten    --      6.0589               230.3756               182.2558

                     55                     56                     57
                      A                      A                      A
 Frequencies --   3048.1490              3058.4412              3081.3161
 Red. masses --      1.0351                 1.0581                 1.0656
 Frc consts  --      5.6663                 5.8313                 5.9612
 IR Inten    --     14.1225                13.6372                11.1128

                     58                     59                     60
                      A                      A                      A
 Frequencies --   3099.5947              3123.3306              3130.4920
 Red. masses --      1.1061                 1.1010                 1.1046
 Frc consts  --      6.2610                 6.3284                 6.3780
 IR Inten    --      3.0986                18.6886                27.5428

                     61                     62                     63
                      A                      A                      A
 Frequencies --   3159.9952              3254.8538              3276.2207
 Red. masses --      1.0974                 1.0905                 1.1053
 Frc consts  --      6.4565                 6.8069                 6.9902
 IR Inten    --      0.3177                 2.5080                 0.9169

 - Thermochemistry -
 -------------------
 Temperature   298.150 Kelvin.  Pressure   1.00000 Atm.
 Atom     1 has atomic number  6 and mass  12.00000

 Molecular mass:   199.05931 amu.
 Principal axes and moments of inertia in atomic units:
                           1         2         3
     Eigenvalues --  1332.860424297.812795134.63629
           X            0.99983  -0.01863   0.00030
           Y            0.01863   0.99977   0.01083
           Z           -0.00050  -0.01083   0.99994
 This molecule is an asymmetric top.
 Rotational symmetry number  1.
 Warning -- assumption of classical behavior for rotation
           may cause significant error
 Rotational temperatures (Kelvin)      0.06498     0.02015     0.01687
 Rotational constants (GHZ):           1.35404     0.41992     0.35148
 Zero-point vibrational energy     454519.1 (Joules/Mol)
                                  108.63267 (Kcal/Mol)
 Warning -- explicit consideration of  17 degrees of freedom as
           vibrations may cause significant error
 Vibrational temperatures:     30.58    53.09    77.28    94.93   141.80
          (Kelvin)            194.07   232.38   281.08   363.47   386.99
                              440.16   467.91   515.24   572.11   660.26
                              791.19   864.76   915.78   958.10  1023.55
                             1103.95  1121.46  1138.54  1162.37  1228.24
                             1255.46  1282.69  1330.50  1362.16  1417.92
                             1510.55  1591.18  1633.21  1672.25  1700.85
                             1731.21  1772.87  1787.44  1861.43  1901.88
                             1979.54  1996.79  2010.13  2019.92  2051.21
                             2052.98  2098.47  2137.80  2152.54  2184.04
                             2195.00  2210.08  2346.59  2646.06  4385.61
                             4400.41  4433.33  4459.63  4493.78  4504.08
                             4546.53  4683.01  4713.75

 Zero-point correction=                           0.173117 (Hartree/Particle)
 Thermal correction to Energy=                    0.186230
 Thermal correction to Enthalpy=                  0.187174
 Thermal correction to Gibbs Free Energy=         0.130791
 Sum of electronic and zero-point Energies=           -737.091982
 Sum of electronic and thermal Energies=              -737.078870
 Sum of electronic and thermal Enthalpies=            -737.077925
 Sum of electronic and thermal Free Energies=         -737.134308

                     E (Thermal)             CV                S
                      KCal/Mol        Cal/Mol-Kelvin    Cal/Mol-Kelvin
 Total                  116.861             46.371            118.667
 Electronic               0.000              0.000              0.000
 Translational            0.889              2.981             41.770
 Rotational               0.889              2.981             31.753
 Vibrational            115.084             40.409             45.144
 Vibration     1          0.593              1.985              6.513
 Vibration     2          0.594              1.982              5.419
 Vibration     3          0.596              1.976              4.676
 Vibration     4          0.597              1.970              4.270
 Vibration     5          0.604              1.950              3.483
 Vibration     6          0.613              1.919              2.875
 Vibration     7          0.622              1.890              2.532
 Vibration     8          0.636              1.846              2.176
 Vibration     9          0.664              1.758              1.712
 Vibration    10          0.673              1.730              1.603
 Vibration    11          0.696              1.662              1.384
 Vibration    12          0.709              1.625              1.284
 Vibration    13          0.733              1.559              1.130
 Vibration    14          0.764              1.475              0.971
 Vibration    15          0.817              1.341              0.769
 Vibration    16          0.905              1.140              0.544
 Vibration    17          0.959              1.030              0.448

 Optimization completed.
    -- Stationary point found.
 Normal termination of Gaussian 16 at Mon May 15 20:10:45 2023.
