 Gaussian 16, Revision A.03,
 Gaussian 16:  ES64L-G16RevA.03 25-Dec-2016

 -----------------------------
 # opt freq b3lyp/6-31g(2df,p)
 -----------------------------

 -------------------
 Title Card Required
 -------------------
 Symbolic Z-matrix:
 Charge =  0 Multiplicity = 1

 SCF Done:  E(RB3LYP) =  -939.579904002     A.U. after   13 cycles
 SCF Done:  E(RB3LYP) =  -939.583666897     A.U. after   11 cycles
 SCF Done:  E(RB3LYP) =  -939.584103105     A.U. after   10 cycles
 SCF Done:  E(RB3LYP) =  -939.584147771     A.U. after    9 cycles
 SCF Done:  E(RB3LYP) =  -939.584155295     A.U. after    7 cycles
 SCF Done:  E(RB3LYP) =  -939.584156591     A.U. after    7 cycles
 Optimization completed.
    -- Stationary point found.
 Normal termination of Gaussian 16 at Mon May 15 21:51:34 2023.

 ----------------------------------------------------------------------
 #N Geom=AllCheck Guess=TCheck SCRF=Check GenChk RB3LYP/6-31G(2df,p) Fr
 eq
 ----------------------------------------------------------------------

 Structure from the checkpoint file:  "CCOSq[O]rq[O]rCCCqCrqCrC.chk"
 -------------------
 Title Card Required
 -------------------
 Charge =  0 Multiplicity = 1

                         Standard orientation:
 ---------------------------------------------------------------------
 Center     Atomic      Atomic             Coordinates (Angstroms)
 Number     Number       Type             X           Y           Z
 ---------------------------------------------------------------------
      1          6           0        4.436034    1.422668   -0.000112
      2          6           0        3.607862    0.153005    0.000264
      3          8           0        2.210741    0.550848    0.000168
      4         16           0        1.138687   -0.651450   -0.000049
      5          8           0        1.239105   -1.373765   -1.244096
      6          8           0        1.239056   -1.374175    1.243740
      7          6           0       -0.330965    0.375505    0.000060
      8          6           0       -1.583835   -0.507169   -0.000127
      9          6           0       -2.932506    0.258543    0.000009
     10          6           0       -3.068511    1.133650    1.259590
     11          6           0       -3.068647    1.133906   -1.259381
     12          6           0       -4.054935   -0.796577   -0.000038
     13          1           0        5.499663    1.166463   -0.000001
     14          1           0        4.224911    2.024875    0.887616
     15          1           0        4.224957    2.024320   -0.888227
     16          1           0        3.796150   -0.454546    0.890900
     17          1           0        3.796137   -0.455051   -0.890031
     18          1           0       -0.254057    1.003050   -0.889897
     19          1           0       -0.254136    1.002793    0.890208
     20          1           0       -1.546336   -1.159891    0.879194
     21          1           0       -1.546310   -1.159566   -0.879687
     22          1           0       -2.329010    1.940761    1.282824
     23          1           0       -2.946921    0.538623    2.171396
     24          1           0       -4.058124    1.601167    1.296818
     25          1           0       -2.329187    1.941057   -1.282503
     26          1           0       -4.058284    1.601387   -1.296435
     27          1           0       -2.947102    0.539075   -2.171321
     28          1           0       -3.994841   -1.439235    0.884913
     29          1           0       -3.994960   -1.439030   -0.885145
     30          1           0       -5.039730   -0.317495    0.000085
 ---------------------------------------------------------------------

 SCF Done:  E(RB3LYP) =  -939.584156591     A.U. after    1 cycles

 The electronic state is 1-A.
 Alpha  occ. eigenvalues --  -89.09092 -19.18268 -19.12763 -19.12763 -10.25016
 Alpha  occ. eigenvalues --  -10.22242 -10.20562 -10.19512 -10.19144 -10.17876
 Alpha  occ. eigenvalues --  -10.17875 -10.17621  -8.11506  -6.08165  -6.07838
 Alpha  occ. eigenvalues --   -6.07830  -1.13398  -1.03280  -0.99883  -0.83902
 Alpha  occ. eigenvalues --   -0.79367  -0.76593  -0.69121  -0.69051  -0.67996
 Alpha  occ. eigenvalues --   -0.63140  -0.58956  -0.54453  -0.52540  -0.49524
 Alpha  occ. eigenvalues --   -0.48989  -0.48281  -0.45787  -0.45052  -0.44048
 Alpha  occ. eigenvalues --   -0.43284  -0.42192  -0.41023  -0.40200  -0.38924
 Alpha  occ. eigenvalues --   -0.38851  -0.37849  -0.37144  -0.36970  -0.36338
 Alpha  occ. eigenvalues --   -0.33946  -0.33259  -0.32684  -0.32597  -0.32375
 Alpha  occ. eigenvalues --   -0.30965  -0.30371  -0.28111
 Alpha virt. eigenvalues --    0.05811   0.06617   0.08707   0.10328   0.10548
 Alpha virt. eigenvalues --    0.10623   0.11284   0.12201   0.12882   0.13750
 Alpha virt. eigenvalues --    0.13946   0.14527   0.15621   0.15820   0.16256

 Mulliken charges:
               1
     1  C   -0.390920
     2  C   -0.057237
     3  O   -0.227929
     4  S    0.528515
     5  O   -0.308419
     6  O   -0.308406
     7  C   -0.297529
     8  C   -0.211869
     9  C    0.238174
    10  C   -0.404321
    11  C   -0.404321
    12  C   -0.403724
    13  H    0.128438
    14  H    0.134530
    15  H    0.134535
    16  H    0.137925
    17  H    0.137935
    18  H    0.151683
    19  H    0.151681
    20  H    0.126714
    21  H    0.126716
    22  H    0.109034
    23  H    0.115891
    24  H    0.114379
    25  H    0.109033
    26  H    0.114380
    27  H    0.115892
    28  H    0.114270
    29  H    0.114270
    30  H    0.110680
 Sum of Mulliken charges =  -0.00000

 Dipole moment (field-independent basis, Debye):
    X=             -0.4678    Y=              2.9817    Z=              0.0006  Tot=              3.0182
 Quadrupole moment (field-independent basis, Debye-Ang):
   XX=            -67.9965   YY=            -86.0640   ZZ=            -85.5916
   XY=              4.0005   XZ=              0.0013   YZ=              0.0000

  Exact polarizability: 144.243   2.670 103.818   0.001  -0.000 101.223
 Approx polarizability: 167.207  -0.003 157.940   0.001  -0.001 162.742

                      1                      2                      3
                      A                      A                      A
 Frequencies --     25.8997                37.1893                48.2522
 Red. masses --      3.0506                 3.5953                 2.1777
 Frc consts  --      0.0012                 0.0029                 0.0030
 IR Inten    --      0.7895                 0.0106                 1.2718

                      4                      5                      6
                      A                      A                      A
 Frequencies --     60.6202                65.7421               109.7650
 Red. masses --      4.0563                 3.8955                 2.0670
 Frc consts  --      0.0088                 0.0099                 0.0147
 IR Inten    --      2.8454                 0.8533                 0.0386

                      7                      8                      9
                      A                      A                      A
 Frequencies --    165.7926               194.3863               223.3661
 Red. masses --      3.6831                 4.6319                 1.0742
 Frc consts  --      0.0596                 0.1031                 0.0316
 IR Inten    --      7.5215                 0.7916                 0.0013

                     10                     11                     12
                      A                      A                      A
 Frequencies --    245.8732               262.3283               270.3255
 Red. masses --      1.1423                 1.3790                 1.0774
 Frc consts  --      0.0407                 0.0559                 0.0464
 IR Inten    --      0.0699                 3.1226                 0.0019

                     13                     14                     15
                      A                      A                      A
 Frequencies --    272.9739               299.5702               330.3027
 Red. masses --      2.0301                 2.9147                 3.2154
 Frc consts  --      0.0891                 0.1541                 0.2067
 IR Inten    --      2.8538                 0.4936                 2.1205

                     16                     17                     18
                      A                      A                      A
 Frequencies --    333.1477               352.6139               412.7000
 Red. masses --      2.1911                 2.5978                 2.1350
 Frc consts  --      0.1433                 0.1903                 0.2143
 IR Inten    --      0.0841                 0.4809                 0.2141

                     19                     20                     21
                      A                      A                      A
 Frequencies --    435.0306               455.7410               459.3759
 Red. masses --      2.6461                 7.3956                 2.7333
 Frc consts  --      0.2951                 0.9050                 0.3398
 IR Inten    --      3.7992                 8.7457                 2.7224

                     22                     23                     24
                      A                      A                      A
 Frequencies --    518.0645               604.3295               735.9360
 Red. masses --      7.0261                 6.9229                 4.3148
 Frc consts  --      1.1111                 1.4897                 1.3769
 IR Inten    --     17.4188                49.3819                14.3247

                     25                     26                     27
                      A                      A                      A
 Frequencies --    767.9925               770.8450               788.8317
 Red. masses --      1.2138                 4.5501                 4.4785
 Frc consts  --      0.4218                 1.5930                 1.6419
 IR Inten    --      3.1112               135.9937                20.2991

                     28                     29                     30
                      A                      A                      A
 Frequencies --    820.3178               913.8487               920.1386
 Red. masses --      1.0832                 2.5059                 3.1081
 Frc consts  --      0.4295                 1.2330                 1.5504
 IR Inten    --      0.6186                49.5323               246.6497

                     31                     32                     33
                      A                      A                      A
 Frequencies --    931.3270               940.6656               958.5196
 Red. masses --      1.9725                 1.6671                 1.2536
 Frc consts  --      1.0080                 0.8691                 0.6786
 IR Inten    --      0.0548                 0.3435                 0.1528

                     34                     35                     36
                      A                      A                      A
 Frequencies --    960.7549              1020.8340              1038.9481
 Red. masses --      1.3087                 2.2298                 2.7186
 Frc consts  --      0.7117                 1.3691                 1.7289
 IR Inten    --      0.0761                26.8707               150.0580

                     37                     38                     39
                      A                      A                      A
 Frequencies --   1064.0549              1070.5448              1119.8151
 Red. masses --      1.3799                 2.1751                 2.1633
 Frc consts  --      0.9205                 1.4687                 1.5983
 IR Inten    --      0.2392                 5.0613                10.9804

                     40                     41                     42
                      A                      A                      A
 Frequencies --   1139.8557              1183.1290              1186.5747
 Red. masses --      1.1989                 1.5119                10.3789
 Frc consts  --      0.9178                 1.2469                 8.6098
 IR Inten    --      0.7414                 3.7701               137.6543

                     43                     44                     45
                      A                      A                      A
 Frequencies --   1212.3395              1259.2927              1263.0350
 Red. masses --      1.7449                 1.9292                 2.1866
 Frc consts  --      1.5110                 1.8025                 2.0552
 IR Inten    --      1.5243                 0.0763                26.3985

                     46                     47                     48
                      A                      A                      A
 Frequencies --   1277.0144              1294.4015              1335.5997
 Red. masses --      2.0374                 1.1245                 1.4344
 Frc consts  --      1.9576                 1.1100                 1.5076
 IR Inten    --      1.3713                 8.1980                30.1550

                     49                     50                     51
                      A                      A                      A
 Frequencies --   1376.1395              1380.2667              1398.5226
 Red. masses --      1.4241                 5.4910                 1.2213
 Frc consts  --      1.5890                 6.1635                 1.4074
 IR Inten    --      0.0707               136.5094                 2.6853

                     52                     53                     54
                      A                      A                      A
 Frequencies --   1400.8527              1401.4504              1419.2027
 Red. masses --      1.2301                 1.2378                 1.3296
 Frc consts  --      1.4222                 1.4324                 1.5779
 IR Inten    --      4.9401                 6.4581                11.1339

                     55                     56                     57
                      A                      A                      A
 Frequencies --   1433.9233              1455.9506              1481.1528
 Red. masses --      1.2282                 1.0901                 1.0483
 Frc consts  --      1.4879                 1.3615                 1.3549
 IR Inten    --      3.0699                 1.7831                 0.1139

                     58                     59                     60
                      A                      A                      A
 Frequencies --   1483.7056              1483.7989              1486.4194
 Red. masses --      1.0393                 1.0584                 1.0439
 Frc consts  --      1.3480                 1.3729                 1.3589
 IR Inten    --      4.9016                 0.7483                 0.6751

                     61                     62                     63
                      A                      A                      A
 Frequencies --   1492.3462              1500.6987              1508.4813
 Red. masses --      1.0669                 1.0493                 1.0608
 Frc consts  --      1.4000                 1.3924                 1.4223
 IR Inten    --      0.8312                 1.9073                 3.2210

                     64                     65                     66
                      A                      A                      A
 Frequencies --   1510.5808              1518.7710              1523.1689
 Red. masses --      1.0620                 1.0606                 1.0870
 Frc consts  --      1.4278                 1.4414                 1.4859
 IR Inten    --      5.3997                12.3834                 3.6076

                     67                     68                     69
                      A                      A                      A
 Frequencies --   3024.4273              3025.4140              3031.0676
 Red. masses --      1.0345                 1.0347                 1.0394
 Frc consts  --      5.5754                 5.5802                 5.6262
 IR Inten    --     26.4319                26.7487                10.0721

                     70                     71                     72
                      A                      A                      A
 Frequencies --   3039.9824              3047.7475              3050.2472
 Red. masses --      1.0550                 1.0354                 1.0553
 Frc consts  --      5.7443                 5.6666                 5.7850
 IR Inten    --      7.8748                14.8944                18.6301

                     73                     74                     75
                      A                      A                      A
 Frequencies --   3080.8877              3082.0457              3093.2574
 Red. masses --      1.1037                 1.0591                 1.1015
 Frc consts  --      6.1725                 5.9273                 6.2099
 IR Inten    --      2.4598                 0.2908                 0.0045

                     76                     77                     78
                      A                      A                      A
 Frequencies --   3094.1946              3094.3967              3096.9307
 Red. masses --      1.1020                 1.1018                 1.1078
 Frc consts  --      6.2160                 6.2157                 6.2598
 IR Inten    --      0.0287                 0.9231                 2.6158

                     79                     80                     81
                      A                      A                      A
 Frequencies --   3098.8676              3099.3165              3101.3839
 Red. masses --      1.1010                 1.0978                 1.1004
 Frc consts  --      6.2296                 6.2129                 6.2362
 IR Inten    --     46.6737                58.6498                80.4663

                     82                     83                     84
                      A                      A                      A
 Frequencies --   3122.6839              3131.4550              3146.1909
 Red. masses --      1.1010                 1.1048                 1.1069
 Frc consts  --      6.3255                 6.3828                 6.4556
 IR Inten    --     18.9726                24.3607                 3.9391

 - Thermochemistry -
 -------------------
 Temperature   298.150 Kelvin.  Pressure   1.00000 Atm.
 Atom     1 has atomic number  6 and mass  12.00000

 Molecular mass:   194.09767 amu.
 Principal axes and moments of inertia in atomic units:
                           1         2         3
     Eigenvalues --  1039.335005176.952865418.50836
           X            0.99996   0.00888   0.00000
           Y           -0.00888   0.99996  -0.00001
           Z           -0.00000   0.00001   1.00000
 This molecule is an asymmetric top.
 Rotational symmetry number  1.
 Warning -- assumption of classical behavior for rotation
           may cause significant error
 Rotational temperatures (Kelvin)      0.08334     0.01673     0.01598
 Rotational constants (GHZ):           1.73644     0.34861     0.33307
 Zero-point vibrational energy     681117.4 (Joules/Mol)
                                  162.79096 (Kcal/Mol)
 Warning -- explicit consideration of  23 degrees of freedom as
           vibrations may cause significant error
 Vibrational temperatures:     37.26    53.51    69.42    87.22    94.59
          (Kelvin)            157.93   238.54   279.68   321.37   353.76
                              377.43   388.94   392.75   431.01   475.23
                              479.33   507.33   593.78   625.91   655.71
                              660.94   745.38   869.50  1058.85  1104.97
                             1109.07  1134.95  1180.25  1314.82  1323.87
                             1339.97  1353.41  1379.10  1382.31  1468.75
                             1494.81  1530.94  1540.28  1611.16  1640.00
                             1702.26  1707.22  1744.29  1811.84  1817.23
                             1837.34  1862.36  1921.63  1979.96  1985.90
                             2012.16  2015.51  2016.37  2041.92  2063.10
                             2094.79  2131.05  2134.72  2134.86  2138.63
                             2147.15  2159.17  2170.37  2173.39  2185.17
                             2191.50  4351.48  4352.90  4361.03  4373.86
                             4385.03  4388.63  4432.71  4434.38  4450.51
                             4451.86  4452.15  4455.79  4458.58  4459.23
                             4462.20  4492.85  4505.47  4526.67

 Zero-point correction=                           0.259424 (Hartree/Particle)
 Thermal correction to Energy=                    0.274857
 Thermal correction to Enthalpy=                  0.275801
 Thermal correction to Gibbs Free Energy=         0.215331
 Sum of electronic and zero-point Energies=           -939.324733
 Sum of electronic and thermal Energies=              -939.309299
 Sum of electronic and thermal Enthalpies=            -939.308355
 Sum of electronic and thermal Free Energies=         -939.368826

                     E (Thermal)             CV                S
                      KCal/Mol        Cal/Mol-Kelvin    Cal/Mol-Kelvin
 Total                  172.475             55.486            127.271
 Electronic               0.000              0.000              0.000
 Translational            0.889              2.981             41.695
 Rotational               0.889              2.981             31.745
 Vibrational            170.698             49.525             53.831
 Vibration     1          0.593              1.985              6.121
 Vibration     2          0.594              1.982              5.403
 Vibration     3          0.595              1.978              4.888
 Vibration     4          0.597              1.973              4.437
 Vibration     5          0.597              1.971              4.277
 Vibration     6          0.606              1.941              3.273
 Vibration     7          0.624              1.885              2.483
 Vibration     8          0.635              1.848              2.186
 Vibration     9          0.649              1.805              1.932
 Vibration    10          0.660              1.770              1.760
 Vibration    11          0.670              1.742              1.646
 Vibration    12          0.674              1.728              1.594
 Vibration    13          0.676              1.723              1.577
 Vibration    14          0.692              1.674              1.419
 Vibration    15          0.713              1.615              1.259
 Vibration    16          0.715              1.609              1.245
 Vibration    17          0.729              1.570              1.154
 Vibration    18          0.776              1.443              0.917
 Vibration    19          0.796              1.394              0.842
 Vibration    20          0.814              1.348              0.779
 Vibration    21          0.817              1.340              0.768
 Vibration    22          0.873              1.210              0.614
 Vibration    23          0.963              1.023              0.442

 Optimization completed.
    -- Stationary point found.
 Normal termination of Gaussian 16 at Mon May 15 23:07:03 2023.
