 Gaussian 16, Revision A.03,
 Gaussian 16:  ES64L-G16RevA.03 25-Dec-2016

 -----------------------------
 # opt freq b3lyp/6-31g(2df,p)
 -----------------------------

 -------------------
 Title Card Required
 -------------------
 Symbolic Z-matrix:
 Charge =  0 Multiplicity = 1

 SCF Done:  E(RB3LYP) =  -464.999719660     A.U. after   13 cycles
 SCF Done:  E(RB3LYP) =  -465.004536834     A.U. after   12 cycles
 SCF Done:  E(RB3LYP) =  -465.003964960     A.U. after   12 cycles
 SCF Done:  E(RB3LYP) =  -465.005867908     A.U. after   11 cycles
 SCF Done:  E(RB3LYP) =  -465.006154217     A.U. after   10 cycles
 SCF Done:  E(RB3LYP) =  -465.006172192     A.U. after    9 cycles
 SCF Done:  E(RB3LYP) =  -465.006180390     A.U. after    9 cycles
 SCF Done:  E(RB3LYP) =  -465.006182609     A.U. after    8 cycles
 SCF Done:  E(RB3LYP) =  -465.006184768     A.U. after    9 cycles
 SCF Done:  E(RB3LYP) =  -465.006186220     A.U. after    9 cycles
 SCF Done:  E(RB3LYP) =  -465.006186659     A.U. after    8 cycles
 SCF Done:  E(RB3LYP) =  -465.006186679     A.U. after    6 cycles
 Optimization completed.
    -- Stationary point found.
 Normal termination of Gaussian 16 at Mon May 15 19:50:47 2023.

 ----------------------------------------------------------------------
 #N Geom=AllCheck Guess=TCheck SCRF=Check GenChk RB3LYP/6-31G(2df,p) Fr
 eq
 ----------------------------------------------------------------------

 Structure from the checkpoint file:  "CCqCrCCqdOrOCqCrC.chk"
 -------------------
 Title Card Required
 -------------------
 Charge =  0 Multiplicity = 1

                         Standard orientation:
 ---------------------------------------------------------------------
 Center     Atomic      Atomic             Coordinates (Angstroms)
 Number     Number       Type             X           Y           Z
 ---------------------------------------------------------------------
      1          6           0        3.693612   -0.923203   -0.126749
      2          6           0        2.487869   -0.032544    0.197932
      3          6           0        2.611155    1.337132   -0.483399
      4          6           0        1.180681   -0.738261   -0.189642
      5          6           0       -0.066410   -0.070247    0.358555
      6          8           0       -0.088337    0.744981    1.249652
      7          8           0       -1.166699   -0.534723   -0.265947
      8          6           0       -2.452600   -0.031960    0.188492
      9          6           0       -2.750373    1.299460   -0.493147
     10          6           0       -3.467662   -1.118665   -0.134239
     11          1           0        4.629031   -0.438156    0.170112
     12          1           0        3.755402   -1.129235   -1.202294
     13          1           0        3.635179   -1.885631    0.393124
     14          1           0        2.455589    0.132766    1.281242
     15          1           0        2.634503    1.231272   -1.575238
     16          1           0        3.534841    1.840969   -0.180856
     17          1           0        1.772905    1.986178   -0.218014
     18          1           0        1.175079   -1.768252    0.192070
     19          1           0        1.079698   -0.827101   -1.277571
     20          1           0       -2.380315    0.120868    1.268955
     21          1           0       -2.763349    1.180597   -1.581379
     22          1           0       -1.997136    2.043220   -0.224952
     23          1           0       -3.729201    1.672963   -0.176220
     24          1           0       -3.515786   -1.297297   -1.213029
     25          1           0       -4.461854   -0.817671    0.209199
     26          1           0       -3.201925   -2.057826    0.358400
 ---------------------------------------------------------------------

 SCF Done:  E(RB3LYP) =  -465.006186679     A.U. after    1 cycles

 The electronic state is 1-A.
 Alpha  occ. eigenvalues --  -19.17292 -19.11988 -10.29951 -10.24124 -10.18957
 Alpha  occ. eigenvalues --  -10.18641 -10.18060 -10.17701 -10.17175 -10.16645
 Alpha  occ. eigenvalues --   -1.09230  -1.00672  -0.81143  -0.78980  -0.71373
 Alpha  occ. eigenvalues --   -0.69423  -0.67886  -0.62197  -0.56278  -0.54447
 Alpha  occ. eigenvalues --   -0.49738  -0.47791  -0.46218  -0.44805  -0.44255
 Alpha  occ. eigenvalues --   -0.42889  -0.40504  -0.40097  -0.39365  -0.39084
 Alpha  occ. eigenvalues --   -0.37981  -0.36681  -0.36087  -0.35277  -0.33367
 Alpha  occ. eigenvalues --   -0.32730  -0.32557  -0.32124  -0.29199  -0.26414
 Alpha virt. eigenvalues --    0.02029   0.08175   0.09898   0.11990   0.13436
 Alpha virt. eigenvalues --    0.13997   0.14367   0.14688   0.15229   0.16169
 Alpha virt. eigenvalues --    0.17078   0.17146   0.17984   0.18524   0.18827

 Mulliken charges:
               1
     1  C   -0.395795
     2  C    0.055475
     3  C   -0.388998
     4  C   -0.318900
     5  C    0.445016
     6  O   -0.367305
     7  O   -0.260179
     8  C    0.147538
     9  C   -0.395979
    10  C   -0.392390
    11  H    0.112528
    12  H    0.110615
    13  H    0.108551
    14  H    0.094644
    15  H    0.104820
    16  H    0.110555
    17  H    0.130429
    18  H    0.125258
    19  H    0.120948
    20  H    0.108120
    21  H    0.119540
    22  H    0.140286
    23  H    0.117941
    24  H    0.124409
    25  H    0.119746
    26  H    0.123126
 Sum of Mulliken charges =  -0.00000

 Dipole moment (field-independent basis, Debye):
    X=             -0.7215    Y=             -0.9941    Z=             -1.0404  Tot=              1.6097
 Quadrupole moment (field-independent basis, Debye-Ang):
   XX=            -56.4271   YY=            -63.3402   ZZ=            -64.8004
   XY=             -0.8024   XZ=             -0.4573   YZ=             -2.4270

  Exact polarizability: 115.956  -0.411  88.200   1.127   1.230  79.639
 Approx polarizability: 133.853   0.721 126.616   2.580   9.374 128.001

                      1                      2                      3
                      A                      A                      A
 Frequencies --     23.8918                53.1982                80.5852
 Red. masses --      2.9413                 2.9179                 4.5593
 Frc consts  --      0.0010                 0.0049                 0.0174
 IR Inten    --      0.1941                 0.5748                 0.7117

                      4                      5                      6
                      A                      A                      A
 Frequencies --     99.3422               137.6154               214.4746
 Red. masses --      2.9807                 3.1912                 1.1419
 Frc consts  --      0.0173                 0.0356                 0.0309
 IR Inten    --      0.7555                 2.5770                 0.8313

                      7                      8                      9
                      A                      A                      A
 Frequencies --    221.6405               230.0939               252.7844
 Red. masses --      1.5889                 1.0603                 1.4031
 Frc consts  --      0.0460                 0.0331                 0.0528
 IR Inten    --      4.0575                 0.2417                 0.0042

                     10                     11                     12
                      A                      A                      A
 Frequencies --    259.2686               267.9846               341.0981
 Red. masses --      1.4112                 1.8471                 2.5828
 Frc consts  --      0.0559                 0.0782                 0.1770
 IR Inten    --      0.7583                 4.0843                 2.1499

                     13                     14                     15
                      A                      A                      A
 Frequencies --    361.9005               408.2065               416.4592
 Red. masses --      2.2716                 3.3639                 2.1756
 Frc consts  --      0.1753                 0.3303                 0.2223
 IR Inten    --      0.5399                 7.6202                 0.4026

                     16                     17                     18
                      A                      A                      A
 Frequencies --    441.4713               485.7942               602.0188
 Red. masses --      2.4695                 2.6237                 2.9218
 Frc consts  --      0.2836                 0.3648                 0.6239
 IR Inten    --      2.1468                 0.3822                 5.0527

                     19                     20                     21
                      A                      A                      A
 Frequencies --    720.5738               813.5974               851.6314
 Red. masses --      4.9188                 2.7928                 2.6492
 Frc consts  --      1.5048                 1.0892                 1.1320
 IR Inten    --      3.2181                 4.3434                 2.0432

                     22                     23                     24
                      A                      A                      A
 Frequencies --    898.3800               906.5459               931.3990
 Red. masses --      1.7511                 2.9277                 1.2002
 Frc consts  --      0.8327                 1.4176                 0.6135
 IR Inten    --      3.4299                 8.3746                 1.1809

                     25                     26                     27
                      A                      A                      A
 Frequencies --    933.1725               948.3627               952.7170
 Red. masses --      1.2243                 2.0104                 1.5822
 Frc consts  --      0.6281                 1.0653                 0.8462
 IR Inten    --      0.8880                 7.8331                 0.2221

                     28                     29                     30
                      A                      A                      A
 Frequencies --    971.9849               997.3540              1126.0744
 Red. masses --      1.6014                 2.2702                 1.8687
 Frc consts  --      0.8914                 1.3305                 1.3962
 IR Inten    --      0.2696                13.8734                11.7603

                     31                     32                     33
                      A                      A                      A
 Frequencies --   1138.8469              1140.1330              1162.2387
 Red. masses --      1.9215                 2.1505                 2.0597
 Frc consts  --      1.4684                 1.6470                 1.6392
 IR Inten    --     93.1849               131.7135                10.1417

                     34                     35                     36
                      A                      A                      A
 Frequencies --   1193.6623              1203.6906              1217.1052
 Red. masses --      1.8405                 1.9510                 2.5089
 Frc consts  --      1.5451                 1.6654                 2.1898
 IR Inten    --     60.8782                13.2996               220.3051

                     37                     38                     39
                      A                      A                      A
 Frequencies --   1253.8068              1319.9064              1358.4674
 Red. masses --      1.3528                 1.5475                 1.4011
 Frc consts  --      1.2530                 1.5884                 1.5234
 IR Inten    --     19.5282                80.8454                 2.7703

                     40                     41                     42
                      A                      A                      A
 Frequencies --   1366.7298              1382.4293              1398.8036
 Red. masses --      1.4048                 1.2710                 1.3619
 Frc consts  --      1.5460                 1.4311                 1.5700
 IR Inten    --     11.4683                10.4665                19.6353

                     43                     44                     45
                      A                      A                      A
 Frequencies --   1400.9609              1401.8727              1417.5303
 Red. masses --      1.4750                 1.3605                 1.2654
 Frc consts  --      1.7056                 1.5753                 1.4981
 IR Inten    --     36.0345                17.7770                 3.8122

                     46                     47                     48
                      A                      A                      A
 Frequencies --   1421.1369              1453.9879              1481.4193
 Red. masses --      1.2539                 1.0857                 1.0566
 Frc consts  --      1.4921                 1.3524                 1.3662
 IR Inten    --      2.2688                10.1864                 1.1400

                     49                     50                     51
                      A                      A                      A
 Frequencies --   1486.1876              1489.3426              1494.0625
 Red. masses --      1.0440                 1.0480                 1.0511
 Frc consts  --      1.3586                 1.3697                 1.3824
 IR Inten    --      1.2450                 2.2589                 3.4316

                     52                     53                     54
                      A                      A                      A
 Frequencies --   1495.5977              1505.1640              1511.1280
 Red. masses --      1.0524                 1.0563                 1.0501
 Frc consts  --      1.3869                 1.4100                 1.4128
 IR Inten    --      2.2031                 2.7149                 4.7235

                     55                     56                     57
                      A                      A                      A
 Frequencies --   1513.9237              1801.9221              3021.4848
 Red. masses --      1.0490                11.5734                 1.0385
 Frc consts  --      1.4166                22.1403                 5.5859
 IR Inten    --     11.3985               176.5418                21.0189

                     58                     59                     60
                      A                      A                      A
 Frequencies --   3023.9748              3027.8291              3039.4097
 Red. masses --      1.0512                 1.0527                 1.0352
 Frc consts  --      5.6637                 5.6861                 5.6346
 IR Inten    --     27.5966                10.0689                13.4218

                     61                     62                     63
                      A                      A                      A
 Frequencies --   3039.9034              3043.5905              3069.7771
 Red. masses --      1.0792                 1.0360                 1.0958
 Frc consts  --      5.8758                 5.6545                 6.0843
 IR Inten    --      5.8892                17.9011                 5.6952

                     64                     65                     66
                      A                      A                      A
 Frequencies --   3073.1711              3086.1870              3093.5147
 Red. masses --      1.0850                 1.0994                 1.0993
 Frc consts  --      6.0372                 6.1697                 6.1982
 IR Inten    --      2.9445                13.4586                49.0922

                     67                     68                     69
                      A                      A                      A
 Frequencies --   3099.5288              3108.6861              3119.1874
 Red. masses --      1.1006                 1.1018                 1.1004
 Frc consts  --      6.2300                 6.2735                 6.3081
 IR Inten    --     46.1515                 3.0330                50.1386

                     70                     71                     72
                      A                      A                      A
 Frequencies --   3120.1127              3120.5988              3133.9660
 Red. masses --      1.0998                 1.1020                 1.1012
 Frc consts  --      6.3079                 6.3227                 6.3724
 IR Inten    --     18.1562                22.0335                15.3262

 - Thermochemistry -
 -------------------
 Temperature   298.150 Kelvin.  Pressure   1.00000 Atm.
 Atom     1 has atomic number  6 and mass  12.00000

 Molecular mass:   144.11503 amu.
 Principal axes and moments of inertia in atomic units:
                           1         2         3
     Eigenvalues --   601.420573102.689223358.96124
           X            1.00000  -0.00227  -0.00108
           Y            0.00222   0.99909  -0.04251
           Z            0.00118   0.04251   0.99910
 This molecule is an asymmetric top.
 Rotational symmetry number  1.
 Warning -- assumption of classical behavior for rotation
           may cause significant error
 Rotational temperatures (Kelvin)      0.14402     0.02792     0.02579
 Rotational constants (GHZ):           3.00080     0.58167     0.53729
 Zero-point vibrational energy     605194.4 (Joules/Mol)
                                  144.64493 (Kcal/Mol)
 Warning -- explicit consideration of  18 degrees of freedom as
           vibrations may cause significant error
 Vibrational temperatures:     34.37    76.54   115.94   142.93   198.00
          (Kelvin)            308.58   318.89   331.05   363.70   373.03
                              385.57   490.76   520.69   587.32   599.19
                              635.18   698.95   866.17  1036.75  1170.59
                             1225.31  1292.57  1304.32  1340.08  1342.63
                             1364.48  1370.75  1398.47  1434.97  1620.17
                             1638.55  1640.40  1672.20  1717.41  1731.84
                             1751.14  1803.95  1899.05  1954.53  1966.42
                             1989.01  2012.57  2015.67  2016.98  2039.51
                             2044.70  2091.96  2131.43  2138.29  2142.83
                             2149.62  2151.83  2165.60  2174.18  2178.20
                             2592.56  4347.24  4350.83  4356.37  4373.03
                             4373.74  4379.05  4416.72  4421.61  4440.33
                             4450.88  4459.53  4472.71  4487.81  4489.15
                             4489.85  4509.08

 Zero-point correction=                           0.230506 (Hartree/Particle)
 Thermal correction to Energy=                    0.243090
 Thermal correction to Enthalpy=                  0.244034
 Thermal correction to Gibbs Free Energy=         0.191120
 Sum of electronic and zero-point Energies=           -464.775680
 Sum of electronic and thermal Energies=              -464.763097
 Sum of electronic and thermal Enthalpies=            -464.762152
 Sum of electronic and thermal Free Energies=         -464.815067

                     E (Thermal)             CV                S
                      KCal/Mol        Cal/Mol-Kelvin    Cal/Mol-Kelvin
 Total                  152.541             45.175            111.368
 Electronic               0.000              0.000              0.000
 Translational            0.889              2.981             40.807
 Rotational               0.889              2.981             30.217
 Vibrational            150.764             39.213             40.343
 Vibration     1          0.593              1.985              6.281
 Vibration     2          0.596              1.976              4.695
 Vibration     3          0.600              1.962              3.877
 Vibration     4          0.604              1.950              3.467
 Vibration     5          0.614              1.916              2.837
 Vibration     6          0.644              1.819              2.005
 Vibration     7          0.648              1.808              1.946
 Vibration     8          0.652              1.795              1.878
 Vibration     9          0.664              1.758              1.711
 Vibration    10          0.668              1.747              1.667
 Vibration    11          0.673              1.732              1.609
 Vibration    12          0.721              1.593              1.207
 Vibration    13          0.736              1.551              1.114
 Vibration    14          0.773              1.452              0.933
 Vibration    15          0.780              1.434              0.904
 Vibration    16          0.801              1.380              0.822
 Vibration    17          0.842              1.282              0.695
 Vibration    18          0.960              1.028              0.446

 Optimization completed.
    -- Stationary point found.
 Normal termination of Gaussian 16 at Mon May 15 20:31:16 2023.
