 Gaussian 16, Revision A.03,
 Gaussian 16:  ES64L-G16RevA.03 25-Dec-2016

 -----------------------------
 # opt freq b3lyp/6-31g(2df,p)
 -----------------------------

 -------------------
 Title Card Required
 -------------------
 Symbolic Z-matrix:
 Charge =  0 Multiplicity = 1

 SCF Done:  E(RB3LYP) =  -387.535442675     A.U. after   12 cycles
 SCF Done:  E(RB3LYP) =  -387.538108766     A.U. after   10 cycles
 SCF Done:  E(RB3LYP) =  -387.538411074     A.U. after   10 cycles
 SCF Done:  E(RB3LYP) =  -387.538436319     A.U. after    9 cycles
 SCF Done:  E(RB3LYP) =  -387.538476234     A.U. after    9 cycles
 SCF Done:  E(RB3LYP) =  -387.538479960     A.U. after    7 cycles
 SCF Done:  E(RB3LYP) =  -387.538481391     A.U. after    7 cycles
 SCF Done:  E(RB3LYP) =  -387.538481902     A.U. after    6 cycles
 SCF Done:  E(RB3LYP) =  -387.538482240     A.U. after    6 cycles
 SCF Done:  E(RB3LYP) =  -387.538482305     A.U. after    6 cycles
 Optimization completed.
    -- Stationary point found.
 Normal termination of Gaussian 16 at Mon May 15 22:52:07 2023.

 ----------------------------------------------------------------------
 #N Geom=AllCheck Guess=TCheck SCRF=Check GenChk RB3LYP/6-31G(2df,p) Fr
 eq
 ----------------------------------------------------------------------

 Structure from the checkpoint file:  "CCqCrCqOrCCO.chk"
 -------------------
 Title Card Required
 -------------------
 Charge =  0 Multiplicity = 1

                         Standard orientation:
 ---------------------------------------------------------------------
 Center     Atomic      Atomic             Coordinates (Angstroms)
 Number     Number       Type             X           Y           Z
 ---------------------------------------------------------------------
      1          6           0       -2.805560   -0.563952    0.160227
      2          6           0       -1.595216    0.251516   -0.316969
      3          6           0       -1.760648    1.730402    0.062568
      4          6           0       -0.283595   -0.360038    0.221877
      5          8           0       -0.192372   -1.748716   -0.112052
      6          6           0        0.984930    0.380591   -0.220156
      7          6           0        2.268106   -0.240283    0.339607
      8          8           0        3.428860    0.502769   -0.006600
      9          1           0       -3.727016   -0.205642   -0.309600
     10          1           0       -2.928956   -0.471543    1.246120
     11          1           0       -2.682924   -1.623797   -0.070653
     12          1           0       -1.548764    0.185794   -1.416501
     13          1           0       -1.709107    1.862928    1.150067
     14          1           0       -2.736986    2.100736   -0.265773
     15          1           0       -0.997666    2.368810   -0.390102
     16          1           0       -0.329184   -0.354098    1.320242
     17          1           0       -0.181888   -1.813479   -1.074067
     18          1           0        0.947039    1.427229    0.096927
     19          1           0        1.031301    0.387320   -1.321467
     20          1           0        2.347857   -1.289290    0.025985
     21          1           0        2.231899   -0.235729    1.434890
     22          1           0        3.544396    0.438917   -0.959771
 ---------------------------------------------------------------------

 SCF Done:  E(RB3LYP) =  -387.538482305     A.U. after    1 cycles

 The electronic state is 1-A.
 Alpha  occ. eigenvalues --  -19.13649 -19.12906 -10.23080 -10.21976 -10.18952
 Alpha  occ. eigenvalues --  -10.17927 -10.17614 -10.16838  -1.01811  -1.00898
 Alpha  occ. eigenvalues --   -0.80360  -0.75513  -0.68143  -0.66289  -0.60438
 Alpha  occ. eigenvalues --   -0.57662  -0.50275  -0.47918  -0.46313  -0.45484
 Alpha  occ. eigenvalues --   -0.43646  -0.41310  -0.40012  -0.38673  -0.38156
 Alpha  occ. eigenvalues --   -0.36968  -0.35180  -0.34183  -0.33162  -0.31505
 Alpha  occ. eigenvalues --   -0.30924  -0.27903  -0.25187
 Alpha virt. eigenvalues --    0.06757   0.07984   0.09483   0.11243   0.13103
 Alpha virt. eigenvalues --    0.14146   0.15048   0.16029   0.16535   0.17215
 Alpha virt. eigenvalues --    0.17644   0.18280   0.19809   0.21393   0.21887

 Mulliken charges:
               1
     1  C   -0.387308
     2  C    0.018228
     3  C   -0.396872
     4  C    0.134508
     5  O   -0.432378
     6  C   -0.231924
     7  C   -0.060332
     8  O   -0.419898
     9  H    0.105849
    10  H    0.111193
    11  H    0.123832
    12  H    0.057590
    13  H    0.115802
    14  H    0.113534
    15  H    0.117325
    16  H    0.086124
    17  H    0.274079
    18  H    0.112746
    19  H    0.071185
    20  H    0.098725
    21  H    0.109982
    22  H    0.278012
 Sum of Mulliken charges =  -0.00000

 Dipole moment (field-independent basis, Debye):
    X=             -1.0695    Y=              0.3761    Z=             -2.0113  Tot=              2.3088
 Quadrupole moment (field-independent basis, Debye-Ang):
   XX=            -56.8285   YY=            -54.4495   ZZ=            -46.6049
   XY=             -2.6651   XZ=             -4.1186   YZ=              1.9248

  Exact polarizability:  85.301   0.076  71.245  -1.420   0.438  67.365
 Approx polarizability: 101.592   1.078 100.661  -1.463   1.326 105.667

                      1                      2                      3
                      A                      A                      A
 Frequencies --     62.1202                86.4162               105.9795
 Red. masses --      2.4626                 2.0404                 3.2881
 Frc consts  --      0.0056                 0.0090                 0.0218
 IR Inten    --      1.6817                 2.7061                 3.0871

                      4                      5                      6
                      A                      A                      A
 Frequencies --    139.5704               212.8744               226.3589
 Red. masses --      3.5706                 1.1704                 1.1322
 Frc consts  --      0.0410                 0.0312                 0.0342
 IR Inten    --      1.0935                 0.2702                 0.2027

                      7                      8                      9
                      A                      A                      A
 Frequencies --    277.5225               285.3218               303.6958
 Red. masses --      1.8552                 1.2610                 1.1502
 Frc consts  --      0.0842                 0.0605                 0.0625
 IR Inten    --     20.4663                31.5815               156.2890

                     10                     11                     12
                      A                      A                      A
 Frequencies --    320.7797               369.6267               381.1368
 Red. masses --      3.0107                 2.8011                 2.5807
 Frc consts  --      0.1825                 0.2255                 0.2209
 IR Inten    --     10.4583                 2.5994                 8.3456

                     13                     14                     15
                      A                      A                      A
 Frequencies --    427.9742               490.9656               564.3091
 Red. masses --      2.9967                 3.2413                 2.3557
 Frc consts  --      0.3234                 0.4603                 0.4420
 IR Inten    --      3.6908                 8.8363                12.7669

                     16                     17                     18
                      A                      A                      A
 Frequencies --    790.5885               835.8686               900.2795
 Red. masses --      1.2964                 2.1792                 2.5829
 Frc consts  --      0.4774                 0.8971                 1.2334
 IR Inten    --      0.1159                12.8285                 9.4959

                     19                     20                     21
                      A                      A                      A
 Frequencies --    930.4659               963.0547               971.1062
 Red. masses --      1.1693                 1.5595                 1.6102
 Frc consts  --      0.5965                 0.8522                 0.8947
 IR Inten    --      0.6442                 2.6155                 8.6933

                     22                     23                     24
                      A                      A                      A
 Frequencies --   1007.8327              1070.0371              1076.8953
 Red. masses --      2.6464                 3.9664                 3.3443
 Frc consts  --      1.5838                 2.6757                 2.2851
 IR Inten    --     24.5154                56.0839                99.2041

                     25                     26                     27
                      A                      A                      A
 Frequencies --   1088.6897              1129.2707              1134.2048
 Red. masses --      1.8557                 1.4420                 1.7468
 Frc consts  --      1.2959                 1.0834                 1.3240
 IR Inten    --     35.3915                23.8700                 5.1885

                     28                     29                     30
                      A                      A                      A
 Frequencies --   1167.0064              1192.9645              1268.7913
 Red. masses --      1.7451                 1.7111                 1.4859
 Frc consts  --      1.4003                 1.4348                 1.4094
 IR Inten    --      0.2284                 1.8215                 2.2485

                     31                     32                     33
                      A                      A                      A
 Frequencies --   1287.4712              1308.9966              1344.1507
 Red. masses --      1.3260                 1.2590                 1.3570
 Frc consts  --      1.2950                 1.2710                 1.4445
 IR Inten    --      1.1833                16.8214                 2.9166

                     34                     35                     36
                      A                      A                      A
 Frequencies --   1357.3517              1382.4696              1396.2325
 Red. masses --      1.2944                 1.4160                 1.3055
 Frc consts  --      1.4051                 1.5946                 1.4995
 IR Inten    --      4.9927                 3.7155                 7.3873

                     37                     38                     39
                      A                      A                      A
 Frequencies --   1400.3248              1409.1435              1419.8911
 Red. masses --      1.2914                 1.2263                 1.2471
 Frc consts  --      1.4920                 1.4347                 1.4814
 IR Inten    --      0.6380                40.3877                29.5851

                     40                     41                     42
                      A                      A                      A
 Frequencies --   1424.0106              1480.7573              1489.5460
 Red. masses --      1.2296                 1.0884                 1.0506
 Frc consts  --      1.4690                 1.4061                 1.3734
 IR Inten    --     28.3707                 1.7609                 2.3533

                     43                     44                     45
                      A                      A                      A
 Frequencies --   1491.0347              1505.1398              1514.1915
 Red. masses --      1.0448                 1.0498                 1.0564
 Frc consts  --      1.3685                 1.4013                 1.4270
 IR Inten    --      0.9152                 3.5482                 9.9232

                     46                     47                     48
                      A                      A                      A
 Frequencies --   1515.2632              2967.3175              2980.5826
 Red. masses --      1.0886                 1.0809                 1.0708
 Frc consts  --      1.4726                 5.6072                 5.6050
 IR Inten    --      0.5161                15.8583                24.2294

                     49                     50                     51
                      A                      A                      A
 Frequencies --   3016.2923              3019.5904              3028.0919
 Red. masses --      1.0755                 1.0690                 1.0382
 Frc consts  --      5.7649                 5.7430                 5.6088
 IR Inten    --     21.4587                46.0650                17.1742

                     52                     53                     54
                      A                      A                      A
 Frequencies --   3033.2493              3066.2628              3088.5665
 Red. masses --      1.0401                 1.0952                 1.0964
 Frc consts  --      5.6383                 6.0666                 6.1619
 IR Inten    --     35.7165                14.9981                47.3937

                     55                     56                     57
                      A                      A                      A
 Frequencies --   3090.5250              3096.2142              3113.7009
 Red. masses --      1.0997                 1.0989                 1.0992
 Frc consts  --      6.1885                 6.2071                 6.2790
 IR Inten    --      2.2147                62.9246                30.7091

                     58                     59                     60
                      A                      A                      A
 Frequencies --   3131.2549              3789.3782              3816.8141
 Red. masses --      1.0989                 1.0657                 1.0662
 Frc consts  --      6.3479                 9.0164                 9.1511
 IR Inten    --     17.3003                11.2750                14.6257

 - Thermochemistry -
 -------------------
 Temperature   298.150 Kelvin.  Pressure   1.00000 Atm.
 Atom     1 has atomic number  6 and mass  12.00000

 Molecular mass:   118.09938 amu.
 Principal axes and moments of inertia in atomic units:
                           1         2         3
     Eigenvalues --   495.270611825.834802197.97053
           X            0.99990  -0.01337  -0.00540
           Y            0.01338   0.99991   0.00302
           Z            0.00536  -0.00309   0.99998
 This molecule is an asymmetric top.
 Rotational symmetry number  1.
 Warning -- assumption of classical behavior for rotation
           may cause significant error
 Rotational temperatures (Kelvin)      0.17488     0.04744     0.03941
 Rotational constants (GHZ):           3.64395     0.98845     0.82109
 Zero-point vibrational energy     518853.5 (Joules/Mol)
                                  124.00895 (Kcal/Mol)
 Warning -- explicit consideration of  15 degrees of freedom as
           vibrations may cause significant error
 Vibrational temperatures:     89.38   124.33   152.48   200.81   306.28
          (Kelvin)            325.68   399.29   410.51   436.95   461.53
                              531.81   548.37   615.76   706.39   811.91
                             1137.48  1202.63  1295.30  1338.73  1385.62
                             1397.21  1450.05  1539.54  1549.41  1566.38
                             1624.77  1631.87  1679.06  1716.41  1825.51
                             1852.38  1883.35  1933.93  1952.93  1989.07
                             2008.87  2014.76  2027.44  2042.91  2048.83
                             2130.48  2143.12  2145.27  2165.56  2178.58
                             2180.13  4269.31  4288.39  4339.77  4344.52
                             4356.75  4364.17  4411.67  4443.76  4446.58
                             4454.76  4479.92  4505.18  5452.07  5491.54

 Zero-point correction=                           0.197621 (Hartree/Particle)
 Thermal correction to Energy=                    0.208191
 Thermal correction to Enthalpy=                  0.209136
 Thermal correction to Gibbs Free Energy=         0.162050
 Sum of electronic and zero-point Energies=           -387.340861
 Sum of electronic and thermal Energies=              -387.330291
 Sum of electronic and thermal Enthalpies=            -387.329347
 Sum of electronic and thermal Free Energies=         -387.376432

                     E (Thermal)             CV                S
                      KCal/Mol        Cal/Mol-Kelvin    Cal/Mol-Kelvin
 Total                  130.642             37.971             99.100
 Electronic               0.000              0.000              0.000
 Translational            0.889              2.981             40.214
 Rotational               0.889              2.981             29.076
 Vibrational            128.865             32.009             29.810
 Vibration     1          0.597              1.972              4.389
 Vibration     2          0.601              1.959              3.740
 Vibration     3          0.605              1.944              3.341
 Vibration     4          0.615              1.914              2.810
 Vibration     5          0.644              1.821              2.019
 Vibration     6          0.650              1.801              1.908
 Vibration     7          0.679              1.715              1.549
 Vibration     8          0.683              1.701              1.502
 Vibration     9          0.695              1.667              1.396
 Vibration    10          0.706              1.634              1.306
 Vibration    11          0.742              1.535              1.081
 Vibration    12          0.751              1.510              1.035
 Vibration    13          0.789              1.409              0.865
 Vibration    14          0.847              1.270              0.681
 Vibration    15          0.920              1.108              0.515

 Optimization completed.
    -- Stationary point found.
 Normal termination of Gaussian 16 at Mon May 15 23:19:55 2023.
