 Gaussian 16, Revision A.03,
 Gaussian 16:  ES64L-G16RevA.03 25-Dec-2016

 -----------------------------
 # opt freq b3lyp/6-31g(2df,p)
 -----------------------------

 -------------------
 Title Card Required
 -------------------
 Symbolic Z-matrix:
 Charge =  0 Multiplicity = 1

 SCF Done:  E(RB3LYP) =  -662.738274823     A.U. after   12 cycles
 SCF Done:  E(RB3LYP) =  -662.746333800     A.U. after   12 cycles
 SCF Done:  E(RB3LYP) =  -662.747265650     A.U. after   10 cycles
 SCF Done:  E(RB3LYP) =  -662.747408353     A.U. after    9 cycles
 SCF Done:  E(RB3LYP) =  -662.747419549     A.U. after    8 cycles
 SCF Done:  E(RB3LYP) =  -662.747420542     A.U. after    6 cycles
 Optimization completed.
    -- Stationary point found.
 Normal termination of Gaussian 16 at Mon May 15 15:16:08 2023.

 ----------------------------------------------------------------------
 #N Geom=AllCheck Guess=TCheck SCRF=Check GenChk RB3LYP/6-31G(2df,p) Fr
 eq
 ----------------------------------------------------------------------

 Structure from the checkpoint file:  "CCqCrqCrCCCCOCOCqCrqCrC.chk"
 -------------------
 Title Card Required
 -------------------
 Charge =  0 Multiplicity = 1

                         Standard orientation:
 ---------------------------------------------------------------------
 Center     Atomic      Atomic             Coordinates (Angstroms)
 Number     Number       Type             X           Y           Z
 ---------------------------------------------------------------------
      1          6           0        6.043281   -1.161370    0.000001
      2          6           0        5.000317   -0.027494   -0.000001
      3          6           0        5.207430    0.836559    1.258070
      4          6           0        5.207429    0.836555   -1.258074
      5          6           0        3.593606   -0.677981    0.000001
      6          6           0        2.383820    0.265898    0.000000
      7          6           0        1.054060   -0.497099    0.000002
      8          6           0       -0.155773    0.426971    0.000001
      9          8           0       -1.326324   -0.364081    0.000003
     10          6           0       -2.496409    0.397706    0.000002
     11          8           0       -3.532409   -0.532557    0.000002
     12          6           0       -4.887469   -0.053156   -0.000001
     13          6           0       -5.187258    0.765977    1.266632
     14          6           0       -5.187254    0.765970   -1.266639
     15          6           0       -5.714766   -1.342578    0.000001
     16          1           0        7.062413   -0.759237    0.000000
     17          1           0        5.935671   -1.798574   -0.884870
     18          1           0        5.935671   -1.798572    0.884873
     19          1           0        6.229692    1.229055    1.293659
     20          1           0        5.044354    0.252333    2.170865
     21          1           0        4.527714    1.693894    1.282531
     22          1           0        6.229691    1.229052   -1.293665
     23          1           0        4.527713    1.693889   -1.282538
     24          1           0        5.044353    0.252326   -2.170867
     25          1           0        3.521036   -1.337075    0.876393
     26          1           0        3.521035   -1.337077   -0.876389
     27          1           0        2.420241    0.923346   -0.877793
     28          1           0        2.420242    0.923349    0.877791
     29          1           0        0.992517   -1.150519    0.878608
     30          1           0        0.992516   -1.150522   -0.878601
     31          1           0       -0.136194    1.084967   -0.886720
     32          1           0       -0.136193    1.084969    0.886720
     33          1           0       -2.526749    1.049182   -0.895819
     34          1           0       -2.526750    1.049182    0.895823
     35          1           0       -4.658054    1.723460    1.274192
     36          1           0       -4.897825    0.203632    2.159243
     37          1           0       -6.257824    0.983915    1.329586
     38          1           0       -4.658051    1.723454   -1.274202
     39          1           0       -6.257820    0.983907   -1.329598
     40          1           0       -4.897817    0.203621   -2.159246
     41          1           0       -5.481269   -1.940367    0.885204
     42          1           0       -5.481268   -1.940371   -0.885199
     43          1           0       -6.785262   -1.117871   -0.000000
 ---------------------------------------------------------------------

 SCF Done:  E(RB3LYP) =  -662.747420542     A.U. after    1 cycles

 The electronic state is 1-A.
 Alpha  occ. eigenvalues --  -19.13454 -19.13109 -10.26559 -10.24046 -10.22394
 Alpha  occ. eigenvalues --  -10.19031 -10.17695 -10.17493 -10.17330 -10.17329
 Alpha  occ. eigenvalues --  -10.17284 -10.16783 -10.16734 -10.16734 -10.16645
 Alpha  occ. eigenvalues --   -1.05904  -1.00311  -0.82212  -0.79802  -0.77820
 Alpha  occ. eigenvalues --   -0.71434  -0.68997  -0.68947  -0.67940  -0.67887
 Alpha  occ. eigenvalues --   -0.65236  -0.61382  -0.58397  -0.55247  -0.52506
 Alpha  occ. eigenvalues --   -0.49729  -0.49469  -0.48117  -0.46774  -0.44946
 Alpha  occ. eigenvalues --   -0.44634  -0.43741  -0.43496  -0.42926  -0.41364
 Alpha  occ. eigenvalues --   -0.41115  -0.39516  -0.38742  -0.38692  -0.37438
 Alpha  occ. eigenvalues --   -0.37256  -0.36431  -0.35902  -0.35895  -0.35087
 Alpha  occ. eigenvalues --   -0.34761  -0.34623  -0.34016  -0.32538  -0.32480
 Alpha  occ. eigenvalues --   -0.31199  -0.30791  -0.30250  -0.29691  -0.26205
 Alpha  occ. eigenvalues --   -0.24112
 Alpha virt. eigenvalues --    0.07436   0.07759   0.09418   0.11022   0.11181
 Alpha virt. eigenvalues --    0.11851   0.12295   0.13549   0.13678   0.13712
 Alpha virt. eigenvalues --    0.14131   0.15519   0.15674   0.15819   0.15894

 Mulliken charges:
               1
     1  C   -0.400934
     2  C    0.261588
     3  C   -0.399641
     4  C   -0.399641
     5  C   -0.181316
     6  C   -0.208194
     7  C   -0.192995
     8  C   -0.057841
     9  O   -0.230279
    10  C    0.040654
    11  O   -0.272434
    12  C    0.366259
    13  C   -0.412768
    14  C   -0.412768
    15  C   -0.396129
    16  H    0.105184
    17  H    0.106960
    18  H    0.106960
    19  H    0.106794
    20  H    0.106467
    21  H    0.110200
    22  H    0.106794
    23  H    0.110200
    24  H    0.106467
    25  H    0.087961
    26  H    0.087961
    27  H    0.096371
    28  H    0.096371
    29  H    0.106481
    30  H    0.106481
    31  H    0.083856
    32  H    0.083856
    33  H    0.065403
    34  H    0.065403
    35  H    0.112902
    36  H    0.123226
    37  H    0.114192
    38  H    0.112902
    39  H    0.114192
    40  H    0.123226
    41  H    0.121269
    42  H    0.121269
    43  H    0.107090
 Sum of Mulliken charges =  -0.00000

 Dipole moment (field-independent basis, Debye):
    X=             -0.2785    Y=              1.8000    Z=             -0.0000  Tot=              1.8215
 Quadrupole moment (field-independent basis, Debye-Ang):
   XX=            -89.0756   YY=            -98.8437   ZZ=            -97.0689
   XY=             -4.1923   XZ=              0.0000   YZ=              0.0000

  Exact polarizability: 193.176   0.731 135.826   0.000  -0.000 135.581
 Approx polarizability: 216.052   1.194 204.156   0.000  -0.000 200.842

 ******    1 imaginary frequencies (negative Signs) ******

                      1                      2                      3
                      A                      A                      A
 Frequencies --    -20.8786                17.9112                34.4118
 Red. masses --      2.4424                 3.3123                 2.4233
 Frc consts  --      0.0006                 0.0006                 0.0017
 IR Inten    --      0.2631                 0.0009                 1.8828

                      4                      5                      6
                      A                      A                      A
 Frequencies --     39.8754                57.9987                91.7244
 Red. masses --      3.8482                 2.8978                 2.4460
 Frc consts  --      0.0036                 0.0057                 0.0121
 IR Inten    --      0.2078                 2.1505                 0.5431

                      7                      8                      9
                      A                      A                      A
 Frequencies --    104.6364               114.5856               139.7865
 Red. masses --      2.2425                 3.5943                 1.8800
 Frc consts  --      0.0145                 0.0278                 0.0216
 IR Inten    --      2.8533                 0.2664                 0.4109

                     10                     11                     12
                      A                      A                      A
 Frequencies --    147.7633               160.3746               203.2018
 Red. masses --      2.5267                 4.1267                 1.0927
 Frc consts  --      0.0325                 0.0625                 0.0266
 IR Inten    --      0.3640                 0.0679                 0.0935

                     13                     14                     15
                      A                      A                      A
 Frequencies --    217.9951               224.9272               253.5787
 Red. masses --      3.1937                 1.0873                 1.0776
 Frc consts  --      0.0894                 0.0324                 0.0408
 IR Inten    --      0.1999                 0.0022                 0.0630

                     16                     17                     18
                      A                      A                      A
 Frequencies --    261.9583               264.4551               271.3897
 Red. masses --      1.0924                 1.0442                 1.0651
 Frc consts  --      0.0442                 0.0430                 0.0462
 IR Inten    --      0.1085                 0.1083                 0.0001

                     19                     20                     21
                      A                      A                      A
 Frequencies --    289.8490               331.2803               331.5257
 Red. masses --      2.7183                 2.0499                 2.7659
 Frc consts  --      0.1346                 0.1325                 0.1791
 IR Inten    --      0.2129                 0.0118                 0.0174

                     22                     23                     24
                      A                      A                      A
 Frequencies --    334.6339               343.5125               382.5033
 Red. masses --      2.4061                 2.4444                 2.5202
 Frc consts  --      0.1587                 0.1699                 0.2172
 IR Inten    --      1.3236                 0.3383                 0.0011

                     25                     26                     27
                      A                      A                      A
 Frequencies --    411.9901               437.1134               448.5090
 Red. masses --      2.0526                 2.5207                 2.7032
 Frc consts  --      0.2053                 0.2838                 0.3204
 IR Inten    --      0.0237                 0.9403                 3.6388

                     28                     29                     30
                      A                      A                      A
 Frequencies --    451.3479               497.4306               522.5980
 Red. masses --      2.7210                 2.5759                 3.2465
 Frc consts  --      0.3266                 0.3755                 0.5224
 IR Inten    --      0.5525                 0.0242                 0.5104

                     31                     32                     33
                      A                      A                      A
 Frequencies --    560.6357               741.6738               748.1598
 Red. masses --      3.4209                 1.0931                 3.4351
 Frc consts  --      0.6335                 0.3543                 1.1329
 IR Inten    --      6.8196                 2.2299                 0.3570

                     34                     35                     36
                      A                      A                      A
 Frequencies --    762.2700               797.1752               906.3683
 Red. masses --      3.6481                 1.1859                 2.8299
 Frc consts  --      1.2489                 0.4440                 1.3697
 IR Inten    --      0.0204                 0.0746                14.8048

                     37                     38                     39
                      A                      A                      A
 Frequencies --    907.2513               912.9881               914.8111
 Red. masses --      1.6799                 1.4361                 2.3230
 Frc consts  --      0.8147                 0.7053                 1.1454
 IR Inten    --      0.0907                 0.0015                 2.2923

                     40                     41                     42
                      A                      A                      A
 Frequencies --    922.8501               937.3816               938.0998
 Red. masses --      1.7801                 1.5324                 1.7017
 Frc consts  --      0.8932                 0.7933                 0.8823
 IR Inten    --      1.6634                 0.1685                 0.7971

                     43                     44                     45
                      A                      A                      A
 Frequencies --    955.8307               957.8176              1014.1969
 Red. masses --      1.2027                 1.2042                 2.4408
 Frc consts  --      0.6474                 0.6509                 1.4792
 IR Inten    --      0.0090                 0.0064                 3.7317

                     46                     47                     48
                      A                      A                      A
 Frequencies --   1021.9597              1038.2540              1040.3451
 Red. masses --      1.2729                 1.4258                 1.7114
 Frc consts  --      0.7832                 0.9056                 1.0913
 IR Inten    --      0.0522                 1.9118                 4.0591

                     49                     50                     51
                      A                      A                      A
 Frequencies --   1051.7079              1058.3063              1069.5360
 Red. masses --      2.4360                 2.0895                 2.5283
 Frc consts  --      1.5875                 1.3789                 1.7040
 IR Inten    --      0.3942                 6.1445                11.7536

                     52                     53                     54
                      A                      A                      A
 Frequencies --   1111.5786              1114.9446              1147.4809
 Red. masses --      3.8505                 1.4097                 7.4791
 Frc consts  --      2.8032                 1.0325                 5.8022
 IR Inten    --      5.1723                 0.0548               621.3174

                     55                     56                     57
                      A                      A                      A
 Frequencies --   1162.8959              1182.1136              1210.9129
 Red. masses --      1.4786                 5.0184                 1.5210
 Frc consts  --      1.1781                 4.1318                 1.3140
 IR Inten    --      9.4003               106.6524                 7.8898

                     58                     59                     60
                      A                      A                      A
 Frequencies --   1220.2834              1230.5574              1250.7799
 Red. masses --      2.0247                 2.5995                 2.6643
 Frc consts  --      1.7763                 2.3192                 2.4558
 IR Inten    --      8.0279                57.2876                20.0925

                     61                     62                     63
                      A                      A                      A
 Frequencies --   1256.3328              1265.8678              1267.2431
 Red. masses --      1.5733                 1.1591                 2.1411
 Frc consts  --      1.4631                 1.0944                 2.0258
 IR Inten    --      0.4555                 2.7255                 4.8956

                     64                     65                     66
                      A                      A                      A
 Frequencies --   1276.9790              1281.3004              1303.7073
 Red. masses --      2.5149                 1.9946                 1.2926
 Frc consts  --      2.4162                 1.9293                 1.2944
 IR Inten    --     23.2817                 9.5918                 1.9583

                     67                     68                     69
                      A                      A                      A
 Frequencies --   1318.0637              1347.8120              1353.3778
 Red. masses --      1.0929                 1.1754                 1.4056
 Frc consts  --      1.1187                 1.2580                 1.5168
 IR Inten    --      0.2043                 1.3333                 7.9194

                     70                     71                     72
                      A                      A                      A
 Frequencies --   1393.4035              1394.8469              1396.0222
 Red. masses --      1.2576                 1.2861                 1.4170
 Frc consts  --      1.4387                 1.4743                 1.6270
 IR Inten    --     11.7912                13.8065                 0.7676

                     73                     74                     75
                      A                      A                      A
 Frequencies --   1399.9777              1401.4025              1418.3020
 Red. masses --      1.2411                 1.2979                 1.3707
 Frc consts  --      1.4332                 1.5018                 1.6245
 IR Inten    --      6.0326                 6.2009                40.4994

                     76                     77                     78
                      A                      A                      A
 Frequencies --   1422.8236              1432.6016              1470.8542
 Red. masses --      1.2384                 1.2351                 1.0485
 Frc consts  --      1.4771                 1.4936                 1.3364
 IR Inten    --     20.8861                 7.7104                 0.2371

                     79                     80                     81
                      A                      A                      A
 Frequencies --   1475.8862              1476.3154              1480.9606
 Red. masses --      1.1270                 1.1810                 1.0484
 Frc consts  --      1.4464                 1.5166                 1.3547
 IR Inten    --      4.9762                16.7328                 0.0367

                     82                     83                     84
                      A                      A                      A
 Frequencies --   1483.4734              1486.8953              1487.5249
 Red. masses --      1.0473                 1.0442                 1.0702
 Frc consts  --      1.3580                 1.3602                 1.3952
 IR Inten    --      0.6744                 0.4764                 5.9871

                     85                     86                     87
                      A                      A                      A
 Frequencies --   1487.9730              1489.9417              1498.9348
 Red. masses --      1.0572                 1.0813                 1.0601
 Frc consts  --      1.3791                 1.4143                 1.4033
 IR Inten    --      1.6280                 0.1789                 0.7310

                     88                     89                     90
                      A                      A                      A
 Frequencies --   1500.6420              1505.4508              1508.1328
 Red. masses --      1.0667                 1.0888                 1.0611
 Frc consts  --      1.4153                 1.4539                 1.4219
 IR Inten    --      4.6494                 0.2223                 2.8117

                     91                     92                     93
                      A                      A                      A
 Frequencies --   1509.5398              1517.5675              1519.1857
 Red. masses --      1.0642                 1.0636                 1.0637
 Frc consts  --      1.4288                 1.4432                 1.4464
 IR Inten    --      4.3311                17.7319                 6.5493

                     94                     95                     96
                      A                      A                      A
 Frequencies --   1528.9822              1556.6002              2894.1434
 Red. masses --      1.1040                 1.0885                 1.0475
 Frc consts  --      1.5206                 1.5539                 5.1693
 IR Inten    --      1.6938                 1.0268                35.8094

                     97                     98                     99
                      A                      A                      A
 Frequencies --   2911.9463              2942.9511              2965.1217
 Red. masses --      1.1083                 1.0538                 1.1047
 Frc consts  --      5.5368                 5.3773                 5.7225
 IR Inten    --     89.3906                55.0655                48.2974

                    100                    101                    102
                      A                      A                      A
 Frequencies --   2999.5982              3018.7825              3020.8790
 Red. masses --      1.0579                 1.0500                 1.0419
 Frc consts  --      5.6080                 5.6379                 5.6019
 IR Inten    --     15.9841                 3.3697                35.9469

                    103                    104                    105
                      A                      A                      A
 Frequencies --   3022.8693              3030.2605              3031.0078
 Red. masses --      1.0361                 1.0996                 1.0378
 Frc consts  --      5.5782                 5.9489                 5.6173
 IR Inten    --     31.4347                 3.3763                 8.8923

                    106                    107                    108
                      A                      A                      A
 Frequencies --   3033.6805              3036.3015              3038.9121
 Red. masses --      1.0585                 1.0346                 1.0344
 Frc consts  --      5.7397                 5.6199                 5.6284
 IR Inten    --     48.1986                19.8595                20.6738

                    109                    110                    111
                      A                      A                      A
 Frequencies --   3046.3609              3054.1453              3080.2593
 Red. masses --      1.0353                 1.1026                 1.1053
 Frc consts  --      5.6610                 6.0597                 6.1786
 IR Inten    --      7.1766                11.1738                56.7052

                    112                    113                    114
                      A                      A                      A
 Frequencies --   3087.3678              3087.6634              3091.8241
 Red. masses --      1.1017                 1.1016                 1.1011
 Frc consts  --      6.1871                 6.1875                 6.2019
 IR Inten    --      1.6602                 0.9272                58.5399

                    115                    116                    117
                      A                      A                      A
 Frequencies --   3094.7495              3098.3313              3102.2368
 Red. masses --      1.1004                 1.1006                 1.0995
 Frc consts  --      6.2094                 6.2247                 6.2343
 IR Inten    --     84.7009                 4.0855                71.2971

                    118                    119                    120
                      A                      A                      A
 Frequencies --   3104.2968              3109.7405              3114.0034
 Red. masses --      1.1012                 1.1007                 1.1029
 Frc consts  --      6.2522                 6.2715                 6.3012
 IR Inten    --      0.0052                48.3818                 4.4896

                    121                    122                    123
                      A                      A                      A
 Frequencies --   3114.8806              3122.1464              3123.0321
 Red. masses --      1.1022                 1.1020                 1.1017
 Frc consts  --      6.3006                 6.3290                 6.3309
 IR Inten    --     16.9849                28.3870                52.6919

 - Thermochemistry -
 -------------------
 Temperature   298.150 Kelvin.  Pressure   1.00000 Atm.
 Atom     1 has atomic number  6 and mass  12.00000

 Molecular mass:   216.20893 amu.
 Principal axes and moments of inertia in atomic units:
                           1         2         3
     Eigenvalues --   907.62248********************
           X            1.00000  -0.00203   0.00000
           Y            0.00203   1.00000   0.00000
           Z           -0.00000  -0.00000   1.00000
 This molecule is an asymmetric top.
 Rotational symmetry number  1.
 Warning -- assumption of classical behavior for rotation
           may cause significant error
 Rotational temperatures (Kelvin)      0.09543     0.00607     0.00605
 Rotational constants (GHZ):           1.98843     0.12653     0.12608
    1 imaginary frequencies ignored.
 Zero-point vibrational energy    1032200.5 (Joules/Mol)
                                  246.70184 (Kcal/Mol)
 Warning -- explicit consideration of  30 degrees of freedom as
           vibrations may cause significant error
 Vibrational temperatures:     25.77    49.51    57.37    83.45   131.97
          (Kelvin)            150.55   164.86   201.12   212.60   230.74
                              292.36   313.65   323.62   364.84   376.90
                              380.49   390.47   417.03   476.64   476.99
                              481.46   494.24   550.34   592.76   628.91
                              645.30   649.39   715.69   751.90   806.63
                             1067.10  1076.44  1096.74  1146.96  1304.06
                             1305.33  1313.59  1316.21  1327.78  1348.68
                             1349.72  1375.23  1378.09  1459.20  1470.37
                             1493.82  1496.82  1513.17  1522.67  1538.82
                             1599.31  1604.16  1650.97  1673.15  1700.80
                             1742.23  1755.72  1770.50  1799.59  1807.58
                             1821.30  1823.28  1837.29  1843.51  1875.74
                             1896.40  1939.20  1947.21  2004.80  2006.87
                             2008.56  2014.26  2016.31  2040.62  2047.13
                             2061.19  2116.23  2123.47  2124.09  2130.77
                             2134.39  2139.31  2140.22  2140.86  2143.69
                             2156.63  2159.09  2166.01  2169.87  2171.89
                             2183.44  2185.77  2199.86  2239.60  4164.03
                             4189.64  4234.25  4266.15  4315.75  4343.35
                             4346.37  4349.23  4359.87  4360.94  4364.79
                             4368.56  4372.32  4383.03  4394.23  4431.81
                             4442.03  4442.46  4448.45  4452.65  4457.81
                             4463.43  4466.39  4474.22  4480.36  4481.62
                             4492.07  4493.35

 Zero-point correction=                           0.393144 (Hartree/Particle)
 Thermal correction to Energy=                    0.412450
 Thermal correction to Enthalpy=                  0.413394
 Thermal correction to Gibbs Free Energy=         0.344574
 Sum of electronic and zero-point Energies=           -662.354276
 Sum of electronic and thermal Energies=              -662.334970
 Sum of electronic and thermal Enthalpies=            -662.334026
 Sum of electronic and thermal Free Energies=         -662.402846

                     E (Thermal)             CV                S
                      KCal/Mol        Cal/Mol-Kelvin    Cal/Mol-Kelvin
 Total                  258.816             71.481            144.844
 Electronic               0.000              0.000              0.000
 Translational            0.889              2.981             42.016
 Rotational               0.889              2.981             33.582
 Vibrational            257.039             65.520             69.245
 Vibration     1          0.593              1.986              6.853
 Vibration     2          0.594              1.983              5.557
 Vibration     3          0.594              1.981              5.265
 Vibration     4          0.596              1.974              4.524
 Vibration     5          0.602              1.955              3.623
 Vibration     6          0.605              1.946              3.366
 Vibration     7          0.608              1.937              3.190
 Vibration     8          0.615              1.914              2.807
 Vibration     9          0.617              1.905              2.701
 Vibration    10          0.622              1.891              2.545
 Vibration    11          0.639              1.835              2.104
 Vibration    12          0.646              1.814              1.976
 Vibration    13          0.650              1.803              1.919
 Vibration    14          0.665              1.757              1.706
 Vibration    15          0.669              1.742              1.649
 Vibration    16          0.671              1.738              1.632
 Vibration    17          0.675              1.726              1.587
 Vibration    18          0.686              1.693              1.475
 Vibration    19          0.714              1.613              1.254
 Vibration    20          0.714              1.613              1.253
 Vibration    21          0.716              1.606              1.238
 Vibration    22          0.722              1.588              1.196
 Vibration    23          0.752              1.508              1.029
 Vibration    24          0.776              1.444              0.920
 Vibration    25          0.797              1.389              0.836
 Vibration    26          0.808              1.364              0.800
 Vibration    27          0.810              1.358              0.792
 Vibration    28          0.853              1.256              0.665
 Vibration    29          0.878              1.200              0.604
 Vibration    30          0.916              1.116              0.523

 Optimization completed.
    -- Stationary point found.
 Normal termination of Gaussian 16 at Mon May 15 18:14:15 2023.
