 Gaussian 16, Revision A.03,
 Gaussian 16:  ES64L-G16RevA.03 25-Dec-2016

 -----------------------------
 # opt freq b3lyp/6-31g(2df,p)
 -----------------------------

 -------------------
 Title Card Required
 -------------------
 Symbolic Z-matrix:
 Charge =  0 Multiplicity = 1

 SCF Done:  E(RB3LYP) =  -405.767154324     A.U. after   12 cycles
 SCF Done:  E(RB3LYP) =  -405.772250787     A.U. after   10 cycles
 SCF Done:  E(RB3LYP) =  -405.773123004     A.U. after   10 cycles
 SCF Done:  E(RB3LYP) =  -405.773238113     A.U. after    9 cycles
 SCF Done:  E(RB3LYP) =  -405.773311560     A.U. after    9 cycles
 SCF Done:  E(RB3LYP) =  -405.773422106     A.U. after   10 cycles
 SCF Done:  E(RB3LYP) =  -405.773405435     A.U. after    9 cycles
 SCF Done:  E(RB3LYP) =  -405.773592348     A.U. after    9 cycles
 SCF Done:  E(RB3LYP) =  -405.770422213     A.U. after   11 cycles
 SCF Done:  E(RB3LYP) =  -405.774393416     A.U. after   11 cycles
 SCF Done:  E(RB3LYP) =  -405.776558942     A.U. after   11 cycles
 SCF Done:  E(RB3LYP) =  -405.776248052     A.U. after   11 cycles
 SCF Done:  E(RB3LYP) =  -405.776625759     A.U. after   11 cycles
 SCF Done:  E(RB3LYP) =  -405.776602639     A.U. after    9 cycles
 SCF Done:  E(RB3LYP) =  -405.776631801     A.U. after   10 cycles
 SCF Done:  E(RB3LYP) =  -405.776630340     A.U. after    8 cycles
 SCF Done:  E(RB3LYP) =  -405.776632284     A.U. after    8 cycles
 SCF Done:  E(RB3LYP) =  -405.776632046     A.U. after    7 cycles
 SCF Done:  E(RB3LYP) =  -405.776632306     A.U. after    7 cycles
 Optimization completed.
    -- Stationary point found.
 Normal termination of Gaussian 16 at Mon May 15 21:47:14 2023.

 ----------------------------------------------------------------------
 #N Geom=AllCheck Guess=TCheck SCRF=Check GenChk RB3LYP/6-31G(2df,p) Fr
 eq
 ----------------------------------------------------------------------

 Structure from the checkpoint file:  "CCqCrqOrC1CCCN1.chk"
 -------------------
 Title Card Required
 -------------------
 Charge =  0 Multiplicity = 1

                         Standard orientation:
 ---------------------------------------------------------------------
 Center     Atomic      Atomic             Coordinates (Angstroms)
 Number     Number       Type             X           Y           Z
 ---------------------------------------------------------------------
      1          6           0        2.064063    1.248669   -0.280956
      2          6           0        1.220372    0.005229    0.042847
      3          6           0        1.977796   -1.272266   -0.335832
      4          8           0        0.907410   -0.015692    1.442834
      5          6           0       -0.143166    0.067939   -0.690294
      6          6           0       -1.037455    1.260148   -0.217178
      7          6           0       -2.417567    0.631187    0.049286
      8          6           0       -2.047666   -0.815336    0.414299
      9          7           0       -0.932670   -1.168648   -0.476854
     10          1           0        3.016634    1.211672    0.259994
     11          1           0        1.546784    2.165322    0.013090
     12          1           0        2.294122    1.307254   -1.350280
     13          1           0        2.927966   -1.330350    0.209658
     14          1           0        2.213690   -1.291711   -1.405502
     15          1           0        1.367082   -2.143825   -0.097023
     16          1           0        1.721193   -0.196331    1.923718
     17          1           0        0.086838    0.156043   -1.758028
     18          1           0       -1.075500    2.063800   -0.956813
     19          1           0       -0.635748    1.676078    0.709396
     20          1           0       -3.031512    0.639356   -0.859952
     21          1           0       -2.977155    1.151801    0.832260
     22          1           0       -2.869268   -1.527964    0.298375
     23          1           0       -1.697371   -0.865246    1.451090
     24          1           0       -1.316599   -1.463243   -1.367707
 ---------------------------------------------------------------------

 SCF Done:  E(RB3LYP) =  -405.776632306     A.U. after    1 cycles

 The electronic state is 1-A.
 Alpha  occ. eigenvalues --  -19.12529 -14.30042 -10.22678 -10.19893 -10.18862
 Alpha  occ. eigenvalues --  -10.16915 -10.16828 -10.16718 -10.16189  -1.00874
 Alpha  occ. eigenvalues --   -0.90125  -0.77366  -0.74640  -0.69936  -0.68043
 Alpha  occ. eigenvalues --   -0.60715  -0.57187  -0.54385  -0.50285  -0.46853
 Alpha  occ. eigenvalues --   -0.45775  -0.43104  -0.42878  -0.40552  -0.39853
 Alpha  occ. eigenvalues --   -0.38413  -0.38094  -0.35836  -0.34405  -0.34107
 Alpha  occ. eigenvalues --   -0.32925  -0.32551  -0.31381  -0.30115  -0.25738
 Alpha  occ. eigenvalues --   -0.21556
 Alpha virt. eigenvalues --    0.06214   0.09123   0.11998   0.12841   0.13688
 Alpha virt. eigenvalues --    0.13915   0.15525   0.16215   0.16767   0.17965
 Alpha virt. eigenvalues --    0.18583   0.19012   0.19214   0.20520   0.21344

 Mulliken charges:
               1
     1  C   -0.415944
     2  C    0.360434
     3  C   -0.421758
     4  O   -0.463182
     5  C    0.022780
     6  C   -0.230636
     7  C   -0.210297
     8  C   -0.160656
     9  N   -0.291112
    10  H    0.100456
    11  H    0.121919
    12  H    0.109191
    13  H    0.090767
    14  H    0.103455
    15  H    0.141465
    16  H    0.274199
    17  H    0.060141
    18  H    0.089443
    19  H    0.122166
    20  H    0.085585
    21  H    0.092636
    22  H    0.089177
    23  H    0.118993
    24  H    0.210780
 Sum of Mulliken charges =  -0.00000

 Dipole moment (field-independent basis, Debye):
    X=              0.4852    Y=              0.3945    Z=             -0.8768  Tot=              1.0770
 Quadrupole moment (field-independent basis, Debye-Ang):
   XX=            -52.5431   YY=            -59.1891   ZZ=            -54.2968
   XY=              0.5063   XZ=              3.0919   YZ=              0.3683

  Exact polarizability:  96.861   0.139  81.022  -0.920  -0.143  77.105
 Approx polarizability: 122.016   0.508 114.243  -0.504   0.786 120.678

                      1                      2                      3
                      A                      A                      A
 Frequencies --     75.4554               103.6446               203.1869
 Red. masses --      2.7853                 2.9491                 1.8990
 Frc consts  --      0.0093                 0.0187                 0.0462
 IR Inten    --      1.0946                 0.8492                22.6172

                      4                      5                      6
                      A                      A                      A
 Frequencies --    221.8858               222.5455               250.6306
 Red. masses --      1.0517                 1.2021                 1.2417
 Frc consts  --      0.0305                 0.0351                 0.0460
 IR Inten    --     12.8572                51.3175                 0.9061

                      7                      8                      9
                      A                      A                      A
 Frequencies --    271.2208               286.9538               334.4234
 Red. masses --      1.8779                 2.2786                 2.5315
 Frc consts  --      0.0814                 0.1105                 0.1668
 IR Inten    --      3.9851                 2.5447                 1.1517

                     10                     11                     12
                      A                      A                      A
 Frequencies --    370.9200               388.6320               499.9227
 Red. masses --      3.2744                 2.4045                 3.3598
 Frc consts  --      0.2654                 0.2140                 0.4947
 IR Inten    --      1.0094                 1.6467                 8.3362

                     13                     14                     15
                      A                      A                      A
 Frequencies --    549.1646               578.7754               678.0624
 Red. masses --      2.6169                 1.7488                 3.1365
 Frc consts  --      0.4650                 0.3451                 0.8496
 IR Inten    --     14.7663                 1.8569                14.1721

                     16                     17                     18
                      A                      A                      A
 Frequencies --    745.7552               800.0622               852.9167
 Red. masses --      2.8113                 1.5140                 2.5790
 Frc consts  --      0.9212                 0.5710                 1.1054
 IR Inten    --     10.2836                47.9815                10.0560

                     19                     20                     21
                      A                      A                      A
 Frequencies --    885.1719               910.4090               921.2497
 Red. masses --      2.1539                 2.2491                 1.5484
 Frc consts  --      0.9943                 1.0983                 0.7743
 IR Inten    --     11.0828                16.1691                 0.3146

                     22                     23                     24
                      A                      A                      A
 Frequencies --    928.4596               940.9670               963.0745
 Red. masses --      2.2676                 1.9270                 2.0777
 Frc consts  --      1.1517                 1.0053                 1.1354
 IR Inten    --      4.8686                 3.4208                 9.2943

                     25                     26                     27
                      A                      A                      A
 Frequencies --    986.4582              1010.9219              1035.1521
 Red. masses --      1.7329                 1.3666                 1.6393
 Frc consts  --      0.9935                 0.8229                 1.0349
 IR Inten    --      3.3440                 3.6473                 3.4766

                     28                     29                     30
                      A                      A                      A
 Frequencies --   1075.3076              1109.4313              1143.5910
 Red. masses --      1.7223                 4.3963                 1.5507
 Frc consts  --      1.1733                 3.1882                 1.1949
 IR Inten    --      7.8059                33.1251                76.8462

                     31                     32                     33
                      A                      A                      A
 Frequencies --   1174.9426              1197.9501              1219.0093
 Red. masses --      1.6248                 1.6401                 2.6470
 Frc consts  --      1.3215                 1.3868                 2.3175
 IR Inten    --     13.2510                 2.7373                13.4839

                     34                     35                     36
                      A                      A                      A
 Frequencies --   1237.0862              1255.3122              1305.3415
 Red. masses --      1.6983                 1.3629                 1.3649
 Frc consts  --      1.5314                 1.2654                 1.3703
 IR Inten    --     20.3066                 0.8525                 0.5953

                     37                     38                     39
                      A                      A                      A
 Frequencies --   1329.6410              1340.0565              1353.4125
 Red. masses --      1.3415                 1.2882                 1.2923
 Frc consts  --      1.3974                 1.3629                 1.3946
 IR Inten    --      0.9189                 8.2089                16.5097

                     40                     41                     42
                      A                      A                      A
 Frequencies --   1370.3972              1389.3334              1393.7933
 Red. masses --      1.4765                 1.3712                 1.4109
 Frc consts  --      1.6337                 1.5595                 1.6148
 IR Inten    --      5.6703                18.7738                 8.9313

                     43                     44                     45
                      A                      A                      A
 Frequencies --   1410.9880              1466.6479              1478.7147
 Red. masses --      1.2335                 1.1680                 1.0540
 Frc consts  --      1.4469                 1.4803                 1.3579
 IR Inten    --     10.1241                 1.2772                 1.8390

                     46                     47                     48
                      A                      A                      A
 Frequencies --   1484.0637              1486.5580              1494.7024
 Red. masses --      1.0518                 1.0827                 1.0962
 Frc consts  --      1.3648                 1.4096                 1.4430
 IR Inten    --      0.1901                 1.0141                 1.5620

                     49                     50                     51
                      A                      A                      A
 Frequencies --   1497.4631              1507.8698              1513.1352
 Red. masses --      1.0610                 1.1021                 1.0881
 Frc consts  --      1.4018                 1.4763                 1.4678
 IR Inten    --      0.3355                 1.6494                10.6564

                     52                     53                     54
                      A                      A                      A
 Frequencies --   3021.7066              3026.5287              3028.9545
 Red. masses --      1.0403                 1.0658                 1.0463
 Frc consts  --      5.5965                 5.7518                 5.6558
 IR Inten    --     20.7451                36.6582                16.7581

                     55                     56                     57
                      A                      A                      A
 Frequencies --   3036.1670              3044.3047              3065.6012
 Red. masses --      1.0762                 1.0606                 1.0627
 Frc consts  --      5.8452                 5.7915                 5.8840
 IR Inten    --     44.9571                31.9972                32.0472

                     58                     59                     60
                      A                      A                      A
 Frequencies --   3082.4351              3083.0860              3093.2474
 Red. masses --      1.0987                 1.0949                 1.0993
 Frc consts  --      6.1504                 6.1316                 6.1973
 IR Inten    --      7.2175                30.6943                48.8419

                     61                     62                     63
                      A                      A                      A
 Frequencies --   3095.9675              3115.9704              3120.1081
 Red. masses --      1.1067                 1.1043                 1.1001
 Frc consts  --      6.2502                 6.3173                 6.3099
 IR Inten    --     30.4815                26.0136                29.8988

                     64                     65                     66
                      A                      A                      A
 Frequencies --   3144.8549              3523.9974              3816.2808
 Red. masses --      1.0979                 1.0748                 1.0662
 Frc consts  --      6.3978                 7.8644                 9.1487
 IR Inten    --      8.5358                 0.0231                11.6662

 - Thermochemistry -
 -------------------
 Temperature   298.150 Kelvin.  Pressure   1.00000 Atm.
 Atom     1 has atomic number  6 and mass  12.00000

 Molecular mass:   129.11536 amu.
 Principal axes and moments of inertia in atomic units:
                           1         2         3
     Eigenvalues --   657.867971456.451911650.92225
           X            0.99995  -0.00393  -0.00924
           Y            0.00385   0.99996  -0.00793
           Z            0.00927   0.00789   0.99993
 This molecule is an asymmetric top.
 Rotational symmetry number  1.
 Warning -- assumption of classical behavior for rotation
           may cause significant error
 Rotational temperatures (Kelvin)      0.13166     0.05947     0.05246
 Rotational constants (GHZ):           2.74332     1.23914     1.09317
 Zero-point vibrational energy     571515.8 (Joules/Mol)
                                  136.59556 (Kcal/Mol)
 Warning -- explicit consideration of  14 degrees of freedom as
           vibrations may cause significant error
 Vibrational temperatures:    108.56   149.12   292.34   319.24   320.19
          (Kelvin)            360.60   390.23   412.86   481.16   533.67
                              559.15   719.28   790.13   832.73   975.58
                             1072.98  1151.11  1227.16  1273.56  1309.88
                             1325.47  1335.85  1353.84  1385.65  1419.29
                             1454.49  1489.35  1547.13  1596.22  1645.37
                             1690.48  1723.58  1753.88  1779.89  1806.11
                             1878.10  1913.06  1928.04  1947.26  1971.70
                             1998.94  2005.36  2030.10  2110.18  2127.54
                             2135.24  2138.83  2150.54  2154.52  2169.49
                             2177.06  4347.56  4354.50  4357.99  4368.37
                             4380.08  4410.72  4434.94  4435.87  4450.49
                             4454.41  4483.19  4489.14  4524.74  5070.25
                             5490.78

 Zero-point correction=                           0.217679 (Hartree/Particle)
 Thermal correction to Energy=                    0.227660
 Thermal correction to Enthalpy=                  0.228604
 Thermal correction to Gibbs Free Energy=         0.183389
 Sum of electronic and zero-point Energies=           -405.558953
 Sum of electronic and thermal Energies=              -405.548972
 Sum of electronic and thermal Enthalpies=            -405.548028
 Sum of electronic and thermal Free Energies=         -405.593243

                     E (Thermal)             CV                S
                      KCal/Mol        Cal/Mol-Kelvin    Cal/Mol-Kelvin
 Total                  142.859             38.733             95.164
 Electronic               0.000              0.000              0.000
 Translational            0.889              2.981             40.480
 Rotational               0.889              2.981             28.849
 Vibrational            141.081             32.771             25.835
 Vibration     1          0.599              1.965              4.006
 Vibration     2          0.605              1.946              3.385
 Vibration     3          0.639              1.835              2.104
 Vibration     4          0.648              1.808              1.944
 Vibration     5          0.648              1.807              1.938
 Vibration     6          0.663              1.762              1.726
 Vibration     7          0.675              1.726              1.588
 Vibration     8          0.684              1.698              1.492
 Vibration     9          0.716              1.607              1.239
 Vibration    10          0.743              1.532              1.076
 Vibration    11          0.757              1.494              1.005
 Vibration    12          0.855              1.250              0.658
 Vibration    13          0.904              1.142              0.546
 Vibration    14          0.935              1.077              0.488

 Optimization completed.
    -- Stationary point found.
 Normal termination of Gaussian 16 at Mon May 15 22:33:13 2023.
