 Gaussian 16, Revision A.03,
 Gaussian 16:  ES64L-G16RevA.03 25-Dec-2016

 -----------------------------
 # opt freq b3lyp/6-31g(2df,p)
 -----------------------------

 -------------------
 Title Card Required
 -------------------
 Symbolic Z-matrix:
 Charge =  0 Multiplicity = 1

 SCF Done:  E(RB3LYP) =  -559.621258991     A.U. after   12 cycles
 SCF Done:  E(RB3LYP) =  -559.625965077     A.U. after   11 cycles
 SCF Done:  E(RB3LYP) =  -559.626869185     A.U. after   10 cycles
 SCF Done:  E(RB3LYP) =  -559.627147483     A.U. after   10 cycles
 SCF Done:  E(RB3LYP) =  -559.627192432     A.U. after    9 cycles
 SCF Done:  E(RB3LYP) =  -559.627206455     A.U. after    9 cycles
 SCF Done:  E(RB3LYP) =  -559.627212770     A.U. after    9 cycles
 SCF Done:  E(RB3LYP) =  -559.627215773     A.U. after    9 cycles
 SCF Done:  E(RB3LYP) =  -559.627220967     A.U. after    9 cycles
 SCF Done:  E(RB3LYP) =  -559.627223407     A.U. after    9 cycles
 Optimization completed.
    -- Stationary point found.
 Normal termination of Gaussian 16 at Mon May 15 23:05:54 2023.

 ----------------------------------------------------------------------
 #N Geom=AllCheck Guess=TCheck SCRF=Check GenChk RB3LYP/6-31G(2df,p) Fr
 eq
 ----------------------------------------------------------------------

 Structure from the checkpoint file:  "CCqCrqOrCOC1CCNCC1.chk"
 -------------------
 Title Card Required
 -------------------
 Charge =  0 Multiplicity = 1

                         Standard orientation:
 ---------------------------------------------------------------------
 Center     Atomic      Atomic             Coordinates (Angstroms)
 Number     Number       Type             X           Y           Z
 ---------------------------------------------------------------------
      1          6           0       -3.640604    0.958804   -0.033130
      2          6           0       -2.470351   -0.024041    0.123791
      3          6           0       -2.263509   -0.412164    1.592941
      4          8           0       -2.711376   -1.190599   -0.668579
      5          6           0       -1.204735    0.607568   -0.468004
      6          8           0       -0.089712   -0.210870   -0.200102
      7          6           0        1.039622   -0.008363   -1.043772
      8          6           0        1.964784   -1.211988   -0.832664
      9          6           0        2.602918   -1.184912    0.567568
     10          7           0        3.288655    0.071050    0.885920
     11          6           0        2.417805    1.231858    0.685060
     12          6           0        1.782532    1.299844   -0.714717
     13          1           0       -4.568012    0.501033    0.328515
     14          1           0       -3.783153    1.220733   -1.085857
     15          1           0       -3.478639    1.878126    0.539019
     16          1           0       -3.174482   -0.870964    1.995899
     17          1           0       -2.034901    0.463801    2.208810
     18          1           0       -1.440784   -1.123197    1.678410
     19          1           0       -3.439674   -1.672854   -0.263798
     20          1           0       -1.074749    1.614909   -0.042342
     21          1           0       -1.350505    0.714749   -1.554006
     22          1           0        0.695323    0.016413   -2.090211
     23          1           0        2.752195   -1.185369   -1.597251
     24          1           0        1.391869   -2.133639   -0.980008
     25          1           0        3.315751   -2.008948    0.677861
     26          1           0        1.819183   -1.336382    1.319000
     27          1           0        4.105116    0.163634    0.286583
     28          1           0        2.993050    2.141084    0.889636
     29          1           0        1.620225    1.181205    1.436570
     30          1           0        2.565267    1.452489   -1.470052
     31          1           0        1.104274    2.157936   -0.791212
 ---------------------------------------------------------------------

 SCF Done:  E(RB3LYP) =  -559.627223407     A.U. after    1 cycles

 The electronic state is 1-A.
 Alpha  occ. eigenvalues --  -19.13193 -19.12563 -14.30240 -10.23483 -10.22532
 Alpha  occ. eigenvalues --  -10.22009 -10.19521 -10.19278 -10.17407 -10.17315
 Alpha  occ. eigenvalues --  -10.17027 -10.16913  -1.03005  -1.00645  -0.89620
 Alpha  occ. eigenvalues --   -0.79077  -0.76098  -0.74250  -0.68865  -0.67642
 Alpha  occ. eigenvalues --   -0.62096  -0.61765  -0.56859  -0.55190  -0.50014
 Alpha  occ. eigenvalues --   -0.48932  -0.47807  -0.45929  -0.44501  -0.43537
 Alpha  occ. eigenvalues --   -0.42523  -0.41424  -0.41106  -0.39690  -0.39244
 Alpha  occ. eigenvalues --   -0.38152  -0.37316  -0.36933  -0.35143  -0.34918
 Alpha  occ. eigenvalues --   -0.34175  -0.33084  -0.32660  -0.30800  -0.29736
 Alpha  occ. eigenvalues --   -0.26178  -0.24643  -0.20797
 Alpha virt. eigenvalues --    0.06403   0.07925   0.11449   0.11485   0.12006
 Alpha virt. eigenvalues --    0.12442   0.13367   0.13844   0.15139   0.16084
 Alpha virt. eigenvalues --    0.16173   0.16676   0.17345   0.17775   0.18516

 Mulliken charges:
               1
     1  C   -0.415628
     2  C    0.327922
     3  C   -0.417139
     4  O   -0.461297
     5  C   -0.052407
     6  O   -0.269107
     7  C    0.144402
     8  C   -0.223426
     9  C   -0.155915
    10  N   -0.279351
    11  C   -0.151895
    12  C   -0.227531
    13  H    0.104970
    14  H    0.120527
    15  H    0.112847
    16  H    0.096474
    17  H    0.111788
    18  H    0.142863
    19  H    0.273730
    20  H    0.082532
    21  H    0.092867
    22  H    0.059578
    23  H    0.083821
    24  H    0.103891
    25  H    0.092265
    26  H    0.118017
    27  H    0.204809
    28  H    0.092241
    29  H    0.111278
    30  H    0.086014
    31  H    0.090861
 Sum of Mulliken charges =  -0.00000

 Dipole moment (field-independent basis, Debye):
    X=             -0.8660    Y=              0.8550    Z=             -0.5686  Tot=              1.3432
 Quadrupole moment (field-independent basis, Debye-Ang):
   XX=            -68.5557   YY=            -73.1439   ZZ=            -77.9544
   XY=              0.8759   XZ=             -8.1135   YZ=             -1.5604

  Exact polarizability: 127.469  -1.383 106.484  -1.971  -0.380  99.544
 Approx polarizability: 158.939   0.778 155.138  -4.469   0.587 148.911

                      1                      2                      3
                      A                      A                      A
 Frequencies --     19.7985                42.1612                86.7344
 Red. masses --      3.3293                 3.8055                 3.5840
 Frc consts  --      0.0008                 0.0040                 0.0159
 IR Inten    --      0.8221                 1.4328                 0.8598

                      4                      5                      6
                      A                      A                      A
 Frequencies --    108.9762               183.3641               202.2374
 Red. masses --      3.3086                 2.6146                 1.9442
 Frc consts  --      0.0232                 0.0518                 0.0469
 IR Inten    --      1.0259                 0.9733                 2.5934

                      7                      8                      9
                      A                      A                      A
 Frequencies --    222.2447               241.5418               247.1263
 Red. masses --      1.3262                 1.0639                 1.5493
 Frc consts  --      0.0386                 0.0366                 0.0557
 IR Inten    --      0.8447                86.9717                 0.6952

                     10                     11                     12
                      A                      A                      A
 Frequencies --    261.7931               296.6089               334.3334
 Red. masses --      1.4960                 2.4196                 2.1643
 Frc consts  --      0.0604                 0.1254                 0.1425
 IR Inten    --      3.5977                 2.4687                 7.4035

                     13                     14                     15
                      A                      A                      A
 Frequencies --    348.9355               387.6670               413.4362
 Red. masses --      2.3230                 2.2585                 2.2326
 Frc consts  --      0.1666                 0.2000                 0.2248
 IR Inten    --      1.9785                 3.1880                 4.3430

                     16                     17                     18
                      A                      A                      A
 Frequencies --    424.5812               458.9236               510.9245
 Red. masses --      2.3928                 3.0754                 2.9179
 Frc consts  --      0.2541                 0.3816                 0.4488
 IR Inten    --      0.4469                 9.1919                 0.5219

                     19                     20                     21
                      A                      A                      A
 Frequencies --    527.6062               540.9792               676.7974
 Red. masses --      2.8170                 2.3978                 2.1362
 Frc consts  --      0.4620                 0.4135                 0.5765
 IR Inten    --      2.3875                 6.6698                16.0897

                     22                     23                     24
                      A                      A                      A
 Frequencies --    771.8538               789.6851               793.5262
 Red. masses --      3.4976                 2.0008                 1.9519
 Frc consts  --      1.2277                 0.7351                 0.7242
 IR Inten    --     21.9387                27.0090                34.5394

                     25                     26                     27
                      A                      A                      A
 Frequencies --    838.2977               874.2090               889.3218
 Red. masses --      2.3223                 2.4117                 2.1031
 Frc consts  --      0.9615                 1.0859                 0.9800
 IR Inten    --     44.5756                 3.5937                 4.2264

                     28                     29                     30
                      A                      A                      A
 Frequencies --    911.8427               923.1432               940.5790
 Red. masses --      1.8073                 1.6663                 2.1523
 Frc consts  --      0.8854                 0.8366                 1.1219
 IR Inten    --      6.0454                 6.0357                24.0352

                     31                     32                     33
                      A                      A                      A
 Frequencies --    967.6388               980.3318              1000.8809
 Red. masses --      2.0255                 1.5781                 1.5096
 Frc consts  --      1.1174                 0.8936                 0.8910
 IR Inten    --     17.9282                 9.8497                15.1931

                     34                     35                     36
                      A                      A                      A
 Frequencies --   1007.7688              1034.6005              1047.9174
 Red. masses --      2.0997                 1.5375                 2.4356
 Frc consts  --      1.2564                 0.9697                 1.5758
 IR Inten    --     11.5430                 7.8349                 6.1268

                     37                     38                     39
                      A                      A                      A
 Frequencies --   1083.6475              1111.7467              1130.6240
 Red. masses --      1.4952                 2.3554                 4.4152
 Frc consts  --      1.0345                 1.7153                 3.3253
 IR Inten    --     10.3789                 5.9044               174.0220

                     40                     41                     42
                      A                      A                      A
 Frequencies --   1163.0928              1170.7970              1183.5862
 Red. masses --      1.5842                 2.2148                 1.3935
 Frc consts  --      1.2627                 1.7887                 1.1502
 IR Inten    --     46.3571                61.5083                12.0747

                     43                     44                     45
                      A                      A                      A
 Frequencies --   1207.9830              1215.8344              1223.4375
 Red. masses --      2.4470                 2.2008                 1.7280
 Frc consts  --      2.1038                 1.9168                 1.5239
 IR Inten    --     37.7764                12.0791                 9.6318

                     46                     47                     48
                      A                      A                      A
 Frequencies --   1272.7944              1308.2701              1334.3490
 Red. masses --      1.2674                 1.2958                 1.5107
 Frc consts  --      1.2097                 1.3067                 1.5848
 IR Inten    --     35.5941                13.4504                13.9842

                     49                     50                     51
                      A                      A                      A
 Frequencies --   1347.9685              1357.9476              1363.0145
 Red. masses --      1.4045                 1.3287                 1.2444
 Frc consts  --      1.5036                 1.4436                 1.3621
 IR Inten    --      0.4128                 2.9065                28.1306

                     52                     53                     54
                      A                      A                      A
 Frequencies --   1374.6681              1383.1460              1389.4330
 Red. masses --      1.4159                 1.3927                 1.3664
 Frc consts  --      1.5764                 1.5698                 1.5542
 IR Inten    --     28.5845                 3.9592                 7.0558

                     55                     56                     57
                      A                      A                      A
 Frequencies --   1394.0593              1404.4209              1409.9732
 Red. masses --      1.3250                 1.3865                 1.2810
 Frc consts  --      1.5172                 1.6112                 1.5005
 IR Inten    --     14.5257                 3.6635                16.1480

                     58                     59                     60
                      A                      A                      A
 Frequencies --   1438.8234              1463.6795              1478.1577
 Red. masses --      1.3785                 1.0964                 1.0833
 Frc consts  --      1.6814                 1.3840                 1.3946
 IR Inten    --      1.0972                 7.0192                 3.9231

                     61                     62                     63
                      A                      A                      A
 Frequencies --   1480.2633              1481.0787              1481.3674
 Red. masses --      1.0707                 1.0632                 1.0639
 Frc consts  --      1.3823                 1.3741                 1.3756
 IR Inten    --      2.8220                 3.3832                 2.4388

                     64                     65                     66
                      A                      A                      A
 Frequencies --   1492.4554              1494.6132              1495.8760
 Red. masses --      1.1003                 1.1868                 1.0618
 Frc consts  --      1.4440                 1.5621                 1.3999
 IR Inten    --      3.8503                 6.3558                 1.3697

                     67                     68                     69
                      A                      A                      A
 Frequencies --   1503.7353              1514.4820              2962.5208
 Red. masses --      1.0880                 1.1085                 1.0787
 Frc consts  --      1.4495                 1.4979                 5.5780
 IR Inten    --      0.5508                16.0297                34.0460

                     70                     71                     72
                      A                      A                      A
 Frequencies --   2970.7517              3008.7892              3016.4512
 Red. masses --      1.0587                 1.1038                 1.0649
 Frc consts  --      5.5048                 5.8874                 5.7087
 IR Inten    --     40.6448                35.8928                18.7089

                     73                     74                     75
                      A                      A                      A
 Frequencies --   3025.7007              3026.7032              3028.8272
 Red. masses --      1.0641                 1.0381                 1.0611
 Frc consts  --      5.7396                 5.6031                 5.7352
 IR Inten    --     48.9673                15.9752                22.6273

                     76                     77                     78
                      A                      A                      A
 Frequencies --   3032.2787              3035.7275              3060.3643
 Red. masses --      1.0379                 1.0605                 1.0964
 Frc consts  --      5.6229                 5.7580                 6.0503
 IR Inten    --     29.3108                32.8869                51.9541

                     79                     80                     81
                      A                      A                      A
 Frequencies --   3074.2245              3075.1844              3082.7849
 Red. masses --      1.0988                 1.1050                 1.1051
 Frc consts  --      6.1187                 6.1566                 6.1876
 IR Inten    --     34.3961                33.9833                52.2922

                     82                     83                     84
                      A                      A                      A
 Frequencies --   3090.1137              3098.7175              3111.5280
 Red. masses --      1.0991                 1.0998                 1.1020
 Frc consts  --      6.1837                 6.2221                 6.2859
 IR Inten    --      6.0987                50.2042                25.8530

                     85                     86                     87
                      A                      A                      A
 Frequencies --   3144.7345              3485.6836              3811.7799
 Red. masses --      1.0985                 1.0732                 1.0660
 Frc consts  --      6.4005                 7.6827                 9.1259
 IR Inten    --     12.6984                 1.5657                10.7052

 - Thermochemistry -
 -------------------
 Temperature   298.150 Kelvin.  Pressure   1.00000 Atm.
 Atom     1 has atomic number  6 and mass  12.00000

 Molecular mass:   173.14158 amu.
 Principal axes and moments of inertia in atomic units:
                           1         2         3
     Eigenvalues --   974.197603892.054584005.65091
           X            0.99989  -0.00978  -0.01154
           Y            0.00876   0.99629  -0.08560
           Z            0.01234   0.08549   0.99626
 This molecule is an asymmetric top.
 Rotational symmetry number  1.
 Warning -- assumption of classical behavior for rotation
           may cause significant error
 Rotational temperatures (Kelvin)      0.08891     0.02225     0.02162
 Rotational constants (GHZ):           1.85254     0.46370     0.45055
 Zero-point vibrational energy     733350.1 (Joules/Mol)
                                  175.27487 (Kcal/Mol)
 Warning -- explicit consideration of  20 degrees of freedom as
           vibrations may cause significant error
 Vibrational temperatures:     28.49    60.66   124.79   156.79   263.82
          (Kelvin)            290.97   319.76   347.52   355.56   376.66
                              426.75   481.03   502.04   557.77   594.84
                              610.88   660.29   735.11   759.11   778.35
                              973.76  1110.53  1136.18  1141.71  1206.12
                             1257.79  1279.54  1311.94  1328.20  1353.28
                             1392.22  1410.48  1440.04  1449.95  1488.56
                             1507.72  1559.13  1599.56  1626.72  1673.43
                             1684.52  1702.92  1738.02  1749.31  1760.25
                             1831.27  1882.31  1919.83  1939.43  1953.78
                             1961.07  1977.84  1990.04  1999.08  2005.74
                             2020.65  2028.64  2070.15  2105.91  2126.74
                             2129.77  2130.94  2131.36  2147.31  2150.41
                             2152.23  2163.54  2179.00  4262.41  4274.25
                             4328.98  4340.00  4353.31  4354.75  4357.81
                             4362.77  4367.73  4403.18  4423.12  4424.50
                             4435.44  4445.98  4458.36  4476.79  4524.57
                             5015.12  5484.30

 Zero-point correction=                           0.279318 (Hartree/Particle)
 Thermal correction to Energy=                    0.292711
 Thermal correction to Enthalpy=                  0.293656
 Thermal correction to Gibbs Free Energy=         0.238893
 Sum of electronic and zero-point Energies=           -559.347905
 Sum of electronic and thermal Energies=              -559.334512
 Sum of electronic and thermal Enthalpies=            -559.333568
 Sum of electronic and thermal Free Energies=         -559.388330

                     E (Thermal)             CV                S
                      KCal/Mol        Cal/Mol-Kelvin    Cal/Mol-Kelvin
 Total                  183.679             51.333            115.257
 Electronic               0.000              0.000              0.000
 Translational            0.889              2.981             41.354
 Rotational               0.889              2.981             31.097
 Vibrational            181.902             45.372             42.806
 Vibration     1          0.593              1.986              6.654
 Vibration     2          0.595              1.980              5.155
 Vibration     3          0.601              1.958              3.732
 Vibration     4          0.606              1.942              3.287
 Vibration     5          0.631              1.862              2.294
 Vibration     6          0.639              1.837              2.113
 Vibration     7          0.648              1.807              1.941
 Vibration     8          0.658              1.777              1.791
 Vibration     9          0.661              1.768              1.751
 Vibration    10          0.669              1.743              1.650
 Vibration    11          0.690              1.680              1.436
 Vibration    12          0.716              1.607              1.239
 Vibration    13          0.726              1.577              1.171
 Vibration    14          0.756              1.497              1.009
 Vibration    15          0.777              1.441              0.915
 Vibration    16          0.787              1.417              0.877
 Vibration    17          0.817              1.341              0.769
 Vibration    18          0.866              1.226              0.631
 Vibration    19          0.883              1.189              0.593
 Vibration    20          0.896              1.159              0.563

                           ! Non-Optimized Parameters !
 Normal termination of Gaussian 16 at Tue May 16 00:28:50 2023.
