 Gaussian 16, Revision A.03,
 Gaussian 16:  ES64L-G16RevA.03 25-Dec-2016

 -----------------------------
 # opt freq b3lyp/6-31g(2df,p)
 -----------------------------

 -------------------
 Title Card Required
 -------------------
 Symbolic Z-matrix:
 Charge =  0 Multiplicity = 1

 SCF Done:  E(RB3LYP) =  -751.309258007     A.U. after   14 cycles
 SCF Done:  E(RB3LYP) =  -751.315645890     A.U. after   14 cycles
 SCF Done:  E(RB3LYP) =  -751.314471610     A.U. after   14 cycles
 SCF Done:  E(RB3LYP) =  -751.309038620     A.U. after   15 cycles
 SCF Done:  E(RB3LYP) =  -751.310435009     A.U. after   13 cycles
 SCF Done:  E(RB3LYP) =  -751.316019678     A.U. after   11 cycles
 SCF Done:  E(RB3LYP) =  -751.317397962     A.U. after   14 cycles
 SCF Done:  E(RB3LYP) =  -751.317904352     A.U. after   13 cycles
 SCF Done:  E(RB3LYP) =  -751.317906282     A.U. after   13 cycles
 SCF Done:  E(RB3LYP) =  -751.318095817     A.U. after   12 cycles
 SCF Done:  E(RB3LYP) =  -751.318112891     A.U. after   11 cycles
 SCF Done:  E(RB3LYP) =  -751.318114672     A.U. after   10 cycles
 SCF Done:  E(RB3LYP) =  -751.318115639     A.U. after    7 cycles
 SCF Done:  E(RB3LYP) =  -751.318115788     A.U. after    9 cycles
 SCF Done:  E(RB3LYP) =  -751.318115830     A.U. after    9 cycles
 Optimization completed.
    -- Stationary point found.
 Normal termination of Gaussian 16 at Mon May 15 17:57:20 2023.

 ----------------------------------------------------------------------
 #N Geom=AllCheck Guess=TCheck SCRF=Check GenChk RB3LYP/6-31G(2df,p) Fr
 eq
 ----------------------------------------------------------------------

 Structure from the checkpoint file:  "CCqCrqCrc1ccqNdOrcqCqCrqCrCrcc1O.chk"
 -------------------
 Title Card Required
 -------------------
 Charge =  0 Multiplicity = 1

                         Standard orientation:
 ---------------------------------------------------------------------
 Center     Atomic      Atomic             Coordinates (Angstroms)
 Number     Number       Type             X           Y           Z
 ---------------------------------------------------------------------
      1          6           0        3.716700   -0.399989    1.266889
      2          6           0        3.108895    0.248530    0.000154
      3          6           0        3.498793    1.738349    0.000604
      4          6           0        3.716772   -0.399247   -1.266918
      5          6           0        1.582963    0.068298    0.000063
      6          6           0        0.695711    1.133120    0.000311
      7          6           0       -0.708702    1.028674    0.000120
      8          7           0       -1.239507    2.355166   -0.000003
      9          8           0       -2.447954    2.524804   -0.001080
     10          6           0       -1.334017   -0.259195   -0.000011
     11          6           0       -2.849024   -0.550882    0.000247
     12          6           0       -3.502143    0.025707    1.279255
     13          6           0       -3.502123    0.024472   -1.279375
     14          6           0       -3.148219   -2.066483    0.001036
     15          6           0       -0.439322   -1.322926   -0.000260
     16          6           0        0.956448   -1.190751   -0.000351
     17          8           0        1.725522   -2.310290   -0.000763
     18          1           0        4.803437   -0.262535    1.269934
     19          1           0        3.509371   -1.469650    1.314696
     20          1           0        3.316875    0.068930    2.172013
     21          1           0        4.589671    1.824842    0.000553
     22          1           0        3.127051    2.260502    0.887785
     23          1           0        3.126927    2.261069   -0.886193
     24          1           0        4.803499   -0.261750   -1.269806
     25          1           0        3.316991    0.070194   -2.171798
     26          1           0        3.509431   -1.468877   -1.315375
     27          1           0        1.060790    2.151451    0.000610
     28          1           0       -3.380543    1.104133    1.352051
     29          1           0       -3.071427   -0.441257    2.171473
     30          1           0       -4.575251   -0.194763    1.271572
     31          1           0       -3.380292    1.102798   -1.353209
     32          1           0       -4.575280   -0.195785   -1.271493
     33          1           0       -3.071469   -0.443495   -2.171097
     34          1           0       -2.756396   -2.569949    0.890818
     35          1           0       -2.757329   -2.570772   -0.888684
     36          1           0       -4.232840   -2.207827    0.001603
     37          1           0       -0.819362   -2.338010   -0.000305
     38          1           0        1.155753   -3.087591   -0.000958
 ---------------------------------------------------------------------

 SCF Done:  E(RB3LYP) =  -751.318115830     A.U. after    1 cycles

 The electronic state is 1-A.
 Alpha  occ. eigenvalues --  -19.19648 -19.16260 -14.41434 -10.26768 -10.21772
 Alpha  occ. eigenvalues --  -10.21221 -10.20753 -10.20713 -10.20013 -10.19815
 Alpha  occ. eigenvalues --  -10.19757 -10.17823 -10.17444 -10.17139 -10.17139
 Alpha  occ. eigenvalues --  -10.16560 -10.16560  -1.11846  -1.08714  -0.87801
 Alpha  occ. eigenvalues --   -0.83297  -0.80993  -0.78406  -0.74311  -0.69251
 Alpha  occ. eigenvalues --   -0.68846  -0.68397  -0.68038  -0.67385  -0.63594
 Alpha  occ. eigenvalues --   -0.60284  -0.56941  -0.55266  -0.52663  -0.49835
 Alpha  occ. eigenvalues --   -0.49199  -0.46401  -0.44629  -0.44164  -0.44122
 Alpha  occ. eigenvalues --   -0.43845  -0.43610  -0.43300  -0.42699  -0.41643
 Alpha  occ. eigenvalues --   -0.40374  -0.38651  -0.38372  -0.38328  -0.38120
 Alpha  occ. eigenvalues --   -0.38119  -0.37142  -0.36379  -0.36044  -0.34525
 Alpha  occ. eigenvalues --   -0.34295  -0.33510  -0.32370  -0.32320  -0.31764
 Alpha  occ. eigenvalues --   -0.31651  -0.25903  -0.23676  -0.19934
 Alpha virt. eigenvalues --   -0.08114  -0.01090   0.02454   0.04895   0.08802
 Alpha virt. eigenvalues --    0.09041   0.11036   0.12843   0.13184   0.13572
 Alpha virt. eigenvalues --    0.14538   0.14815   0.15399   0.15769   0.16897

 Mulliken charges:
               1
     1  C   -0.412966
     2  C    0.160357
     3  C   -0.414777
     4  C   -0.412970
     5  C    0.172696
     6  C   -0.203922
     7  C    0.163740
     8  N   -0.062926
     9  O   -0.283137
    10  C    0.172736
    11  C    0.151149
    12  C   -0.415598
    13  C   -0.415563
    14  C   -0.410386
    15  C   -0.326897
    16  C    0.348560
    17  O   -0.427566
    18  H    0.108117
    19  H    0.130964
    20  H    0.111958
    21  H    0.108708
    22  H    0.119116
    23  H    0.119122
    24  H    0.108116
    25  H    0.111958
    26  H    0.130972
    27  H    0.117710
    28  H    0.151099
    29  H    0.104868
    30  H    0.107752
    31  H    0.151109
    32  H    0.107740
    33  H    0.104855
    34  H    0.110151
    35  H    0.110147
    36  H    0.112342
    37  H    0.087966
    38  H    0.302698
 Sum of Mulliken charges =  -0.00000

 Dipole moment (field-independent basis, Debye):
    X=              1.4903    Y=             -4.2571    Z=              0.0006  Tot=              4.5104
 Quadrupole moment (field-independent basis, Debye-Ang):
   XX=           -104.0181   YY=           -103.8433   ZZ=           -104.0890
   XY=              8.2502   XZ=             -0.0029   YZ=              0.0043

  Exact polarizability: 229.687 -11.544 174.250   0.006   0.004 115.741
 Approx polarizability: 330.673 -54.096 319.962   0.019   0.008 177.631
