 Gaussian 16, Revision A.03,
 Gaussian 16:  ES64L-G16RevA.03 25-Dec-2016

 -----------------------------
 # opt freq b3lyp/6-31g(2df,p)
 -----------------------------

 -------------------
 Title Card Required
 -------------------
 Symbolic Z-matrix:
 Charge =  0 Multiplicity = 1

 SCF Done:  E(RB3LYP) =  -406.979677736     A.U. after   12 cycles
 SCF Done:  E(RB3LYP) =  -406.981895157     A.U. after   10 cycles
 SCF Done:  E(RB3LYP) =  -406.982115836     A.U. after    9 cycles
 SCF Done:  E(RB3LYP) =  -406.982140533     A.U. after    8 cycles
 SCF Done:  E(RB3LYP) =  -406.982143565     A.U. after    7 cycles
 SCF Done:  E(RB3LYP) =  -406.982145382     A.U. after    8 cycles
 SCF Done:  E(RB3LYP) =  -406.982145675     A.U. after    6 cycles
 SCF Done:  E(RB3LYP) =  -406.982145729     A.U. after    6 cycles
 Optimization completed.
    -- Stationary point found.
 Normal termination of Gaussian 16 at Mon May 15 14:45:33 2023.

 ----------------------------------------------------------------------
 #N Geom=AllCheck Guess=TCheck SCRF=Check GenChk RB3LYP/6-31G(2df,p) Fr
 eq
 ----------------------------------------------------------------------

 Structure from the checkpoint file:  "CCqCrCOCCCN.chk"
 -------------------
 Title Card Required
 -------------------
 Charge =  0 Multiplicity = 1

                         Standard orientation:
 ---------------------------------------------------------------------
 Center     Atomic      Atomic             Coordinates (Angstroms)
 Number     Number       Type             X           Y           Z
 ---------------------------------------------------------------------
      1          6           0       -3.946912   -0.684250   -0.127709
      2          6           0       -2.663277    0.122801   -0.355961
      3          6           0       -2.734565    1.502345    0.309988
      4          6           0       -1.448662   -0.665528    0.133285
      5          8           0       -0.271076    0.038068   -0.198879
      6          6           0        0.908549   -0.598950    0.240013
      7          6           0        2.103252    0.252646   -0.166023
      8          6           0        3.439730   -0.370951    0.235325
      9          7           0        4.548094    0.510673   -0.145498
     10          1           0       -4.820310   -0.141463   -0.502291
     11          1           0       -4.109769   -0.872693    0.940337
     12          1           0       -3.911566   -1.653661   -0.636426
     13          1           0       -2.530146    0.268534   -1.436407
     14          1           0       -2.897750    1.404426    1.390524
     15          1           0       -3.560483    2.093974   -0.098085
     16          1           0       -1.804095    2.053829    0.158138
     17          1           0       -1.434854   -1.668966   -0.327096
     18          1           0       -1.510644   -0.814044    1.227038
     19          1           0        0.984361   -1.608322   -0.202252
     20          1           0        0.886341   -0.733210    1.336007
     21          1           0        2.015974    1.245488    0.286940
     22          1           0        2.072526    0.397200   -1.253841
     23          1           0        3.509834   -1.386877   -0.194020
     24          1           0        3.472951   -0.493251    1.325557
     25          1           0        4.590071    0.583385   -1.158630
     26          1           0        5.430825    0.097718    0.140507
 ---------------------------------------------------------------------

 SCF Done:  E(RB3LYP) =  -406.982145729     A.U. after    1 cycles

 The electronic state is 1-A.
 Alpha  occ. eigenvalues --  -19.13266 -14.30474 -10.22231 -10.21865 -10.20361
 Alpha  occ. eigenvalues --  -10.18192 -10.17357 -10.17125 -10.16296  -1.02733
 Alpha  occ. eigenvalues --   -0.87527  -0.79964  -0.75827  -0.67885  -0.67635
 Alpha  occ. eigenvalues --   -0.62601  -0.58568  -0.55697  -0.49289  -0.48377
 Alpha  occ. eigenvalues --   -0.47385  -0.46379  -0.43676  -0.43234  -0.41550
 Alpha  occ. eigenvalues --   -0.38948  -0.38035  -0.37704  -0.37134  -0.34931
 Alpha  occ. eigenvalues --   -0.33418  -0.33211  -0.32125  -0.31910  -0.30439
 Alpha  occ. eigenvalues --   -0.24977  -0.23285
 Alpha virt. eigenvalues --    0.08376   0.08879   0.10199   0.11578   0.12715
 Alpha virt. eigenvalues --    0.13606   0.14209   0.15242   0.15888   0.17470
 Alpha virt. eigenvalues --    0.17708   0.17882   0.18455   0.19135   0.19581

 Mulliken charges:
               1
     1  C   -0.392243
     2  C    0.021672
     3  C   -0.379292
     4  C   -0.037348
     5  O   -0.250608
     6  C   -0.050018
     7  C   -0.174756
     8  C   -0.145831
     9  N   -0.508232
    10  H    0.113728
    11  H    0.112386
    12  H    0.109948
    13  H    0.081083
    14  H    0.105079
    15  H    0.105508
    16  H    0.130481
    17  H    0.077382
    18  H    0.077626
    19  H    0.079928
    20  H    0.082862
    21  H    0.116738
    22  H    0.098047
    23  H    0.076953
    24  H    0.102448
    25  H    0.222345
    26  H    0.224115
 Sum of Mulliken charges =  -0.00000

 Dipole moment (field-independent basis, Debye):
    X=              0.4195    Y=             -1.7342    Z=             -0.2008  Tot=              1.7954
 Quadrupole moment (field-independent basis, Debye-Ang):
   XX=            -52.5470   YY=            -60.5789   ZZ=            -56.9726
   XY=             -4.6111   XZ=             -2.3163   YZ=             -0.7090

  Exact polarizability: 113.093   0.810  82.486   0.183  -0.831  77.990
 Approx polarizability: 124.799   0.484 117.982   0.316  -2.147 119.424

                      1                      2                      3
                      A                      A                      A
 Frequencies --     41.1169                51.4909                76.9308
 Red. masses --      3.5267                 1.8307                 3.5597
 Frc consts  --      0.0035                 0.0029                 0.0124
 IR Inten    --      0.2893                 3.7925                 0.1956

                      4                      5                      6
                      A                      A                      A
 Frequencies --    108.3227               129.6333               162.0509
 Red. masses --      2.5813                 2.1074                 2.6355
 Frc consts  --      0.0178                 0.0209                 0.0408
 IR Inten    --      0.4579                 1.2330                 2.8642

                      7                      8                      9
                      A                      A                      A
 Frequencies --    194.2220               218.9038               245.9294
 Red. masses --      2.5953                 1.0808                 1.1468
 Frc consts  --      0.0577                 0.0305                 0.0409
 IR Inten    --      1.2553                 0.4546                 0.2668

                     10                     11                     12
                      A                      A                      A
 Frequencies --    252.6675               273.7484               340.4419
 Red. masses --      1.5988                 1.7691                 2.9729
 Frc consts  --      0.0601                 0.0781                 0.2030
 IR Inten    --     18.3164                19.1314                 5.6629

                     13                     14                     15
                      A                      A                      A
 Frequencies --    377.7652               424.5321               508.1144
 Red. masses --      2.5177                 2.0473                 2.9150
 Frc consts  --      0.2117                 0.2174                 0.4434
 IR Inten    --      1.0269                 2.4816                 6.4271

                     16                     17                     18
                      A                      A                      A
 Frequencies --    515.9255               772.7321               834.4427
 Red. masses --      3.8730                 1.0787                 2.5672
 Frc consts  --      0.6074                 0.3795                 1.0532
 IR Inten    --      5.2843                 2.7572                 1.6044

                     19                     20                     21
                      A                      A                      A
 Frequencies --    850.4745               905.0717               923.6875
 Red. masses --      1.1977                 1.2488                 1.3895
 Frc consts  --      0.5104                 0.6027                 0.6985
 IR Inten    --     83.9679                45.3855                 4.6661

                     22                     23                     24
                      A                      A                      A
 Frequencies --    931.6965               960.0589               976.3533
 Red. masses --      1.1875                 1.4570                 1.7996
 Frc consts  --      0.6073                 0.7913                 1.0107
 IR Inten    --      1.2430                 0.8293                 2.4427

                     25                     26                     27
                      A                      A                      A
 Frequencies --    980.1407              1037.7051              1058.8796
 Red. masses --      2.5115                 2.9429                 2.7349
 Frc consts  --      1.4215                 1.8671                 1.8067
 IR Inten    --      1.3091                17.9108                 8.0569

                     28                     29                     30
                      A                      A                      A
 Frequencies --   1094.1939              1142.4815              1159.0943
 Red. masses --      2.5872                 1.7980                 4.0576
 Frc consts  --      1.8250                 1.3827                 3.2118
 IR Inten    --     19.1849                 7.6498               181.6289

                     31                     32                     33
                      A                      A                      A
 Frequencies --   1166.3636              1185.7498              1200.2476
 Red. masses --      2.9887                 1.6547                 1.7351
 Frc consts  --      2.3955                 1.3708                 1.4727
 IR Inten    --     70.2526                 1.5324                 1.0696

                     34                     35                     36
                      A                      A                      A
 Frequencies --   1216.2939              1259.7367              1276.5152
 Red. masses --      1.5913                 1.3298                 1.1940
 Frc consts  --      1.3870                 1.2434                 1.1463
 IR Inten    --      4.7548                 1.1377                 2.4992

                     37                     38                     39
                      A                      A                      A
 Frequencies --   1301.5092              1312.9455              1329.0815
 Red. masses --      1.1637                 1.1237                 1.3163
 Frc consts  --      1.1614                 1.1412                 1.3700
 IR Inten    --      1.8591                 4.7978                 7.8869

                     40                     41                     42
                      A                      A                      A
 Frequencies --   1343.4051              1372.9209              1396.0150
 Red. masses --      1.2677                 1.3366                 1.3088
 Frc consts  --      1.3480                 1.4844                 1.5028
 IR Inten    --      0.1949                 3.5921                11.3000

                     43                     44                     45
                      A                      A                      A
 Frequencies --   1399.5771              1417.7014              1434.6926
 Red. masses --      1.3360                 1.2483                 1.4671
 Frc consts  --      1.5419                 1.4783                 1.7793
 IR Inten    --     19.3248                15.6380                20.1794

                     46                     47                     48
                      A                      A                      A
 Frequencies --   1454.4792              1489.4073              1490.0700
 Red. masses --      1.4732                 1.0572                 1.0433
 Frc consts  --      1.8363                 1.3818                 1.3648
 IR Inten    --      4.6876                 2.3445                 0.4457

                     49                     50                     51
                      A                      A                      A
 Frequencies --   1494.7325              1503.0038              1509.0908
 Red. masses --      1.0834                 1.0487                 1.0830
 Frc consts  --      1.4262                 1.3958                 1.4532
 IR Inten    --      1.0329                 5.0553                 5.0656

                     52                     53                     54
                      A                      A                      A
 Frequencies --   1513.4152              1519.7826              1536.1928
 Red. masses --      1.0644                 1.0885                 1.0941
 Frc consts  --      1.4364                 1.4813                 1.5212
 IR Inten    --     10.4521                 1.2247                 0.9984

                     55                     56                     57
                      A                      A                      A
 Frequencies --   1659.5386              2928.5382              2932.5652
 Red. masses --      1.0884                 1.0622                 1.0640
 Frc consts  --      1.7661                 5.3672                 5.3913
 IR Inten    --     21.6631                39.3791                21.4630

                     58                     59                     60
                      A                      A                      A
 Frequencies --   2945.1195              2962.3958              2964.2026
 Red. masses --      1.0572                 1.1015                 1.1036
 Frc consts  --      5.4025                 5.6954                 5.7129
 IR Inten    --    106.0587               109.0884                 2.5803

                     61                     62                     63
                      A                      A                      A
 Frequencies --   3018.3785              3023.8339              3025.9611
 Red. masses --      1.0806                 1.0369                 1.0713
 Frc consts  --      5.8005                 5.5861                 5.7795
 IR Inten    --     11.6508                26.6423                 3.6242

                     64                     65                     66
                      A                      A                      A
 Frequencies --   3029.3262              3039.7520              3087.1465
 Red. masses --      1.0414                 1.0778                 1.0996
 Frc consts  --      5.6304                 5.8677                 6.1743
 IR Inten    --     38.0672                53.5547                13.2345

                     67                     68                     69
                      A                      A                      A
 Frequencies --   3088.0841              3092.5723              3101.5301
 Red. masses --      1.0999                 1.0997                 1.1008
 Frc consts  --      6.1796                 6.1965                 6.2388
 IR Inten    --     33.3473                58.0997                37.9933

                     70                     71                     72
                      A                      A                      A
 Frequencies --   3126.5340              3483.8884              3561.7685
 Red. masses --      1.0993                 1.0496                 1.0917
 Frc consts  --      6.3310                 7.5056                 8.1602
 IR Inten    --     20.0300                 1.0783                 0.1581

 - Thermochemistry -
 -------------------
 Temperature   298.150 Kelvin.  Pressure   1.00000 Atm.
 Atom     1 has atomic number  6 and mass  12.00000

 Molecular mass:   131.13101 amu.
 Principal axes and moments of inertia in atomic units:
                           1         2         3
     Eigenvalues --   333.336653854.023234047.26906
           X            0.99999  -0.00383  -0.00223
           Y            0.00382   0.99998  -0.00561
           Z            0.00225   0.00560   0.99998
 This molecule is an asymmetric top.
 Rotational symmetry number  1.
 Rotational temperatures (Kelvin)      0.25984     0.02247     0.02140
 Rotational constants (GHZ):           5.41417     0.46827     0.44592
 Zero-point vibrational energy     626501.5 (Joules/Mol)
                                  149.73745 (Kcal/Mol)
 Warning -- explicit consideration of  16 degrees of freedom as
           vibrations may cause significant error
 Vibrational temperatures:     59.16    74.08   110.69   155.85   186.51
          (Kelvin)            233.16   279.44   314.95   353.84   363.53
                              393.86   489.82   543.52   610.81   731.06
                              742.30  1111.79  1200.58  1223.64  1302.20
                             1328.98  1340.50  1381.31  1404.75  1410.20
                             1493.03  1523.49  1574.30  1643.78  1667.68
                             1678.14  1706.03  1726.89  1749.98  1812.48
                             1836.62  1872.58  1889.04  1912.25  1932.86
                             1975.33  2008.55  2013.68  2039.76  2064.20
                             2092.67  2142.92  2143.88  2150.59  2162.49
                             2171.25  2177.47  2186.63  2210.24  2387.71
                             4213.51  4219.31  4237.37  4262.23  4264.83
                             4342.77  4350.62  4353.68  4358.52  4373.53
                             4441.72  4443.06  4449.52  4462.41  4498.39
                             5012.54  5124.59

 Zero-point correction=                           0.238622 (Hartree/Particle)
 Thermal correction to Energy=                    0.250732
 Thermal correction to Enthalpy=                  0.251677
 Thermal correction to Gibbs Free Energy=         0.199891
 Sum of electronic and zero-point Energies=           -406.743524
 Sum of electronic and thermal Energies=              -406.731413
 Sum of electronic and thermal Enthalpies=            -406.730469
 Sum of electronic and thermal Free Energies=         -406.782255

                     E (Thermal)             CV                S
                      KCal/Mol        Cal/Mol-Kelvin    Cal/Mol-Kelvin
 Total                  157.337             42.416            108.993
 Electronic               0.000              0.000              0.000
 Translational            0.889              2.981             40.526
 Rotational               0.889              2.981             30.032
 Vibrational            155.559             36.455             38.435
 Vibration     1          0.594              1.981              5.205
 Vibration     2          0.596              1.977              4.759
 Vibration     3          0.599              1.965              3.968
 Vibration     4          0.606              1.943              3.299
 Vibration     5          0.612              1.924              2.951
 Vibration     6          0.622              1.889              2.526
 Vibration     7          0.635              1.848              2.187
 Vibration     8          0.647              1.812              1.968
 Vibration     9          0.660              1.770              1.760
 Vibration    10          0.664              1.758              1.712
 Vibration    11          0.676              1.722              1.572
 Vibration    12          0.720              1.595              1.210
 Vibration    13          0.748              1.518              1.048
 Vibration    14          0.787              1.417              0.877
 Vibration    15          0.863              1.232              0.638
 Vibration    16          0.871              1.215              0.619

 Optimization completed.
    -- Stationary point found.
 Normal termination of Gaussian 16 at Mon May 15 15:18:10 2023.
