 Gaussian 16, Revision A.03,
 Gaussian 16:  ES64L-G16RevA.03 25-Dec-2016

 -----------------------------
 # opt freq b3lyp/6-31g(2df,p)
 -----------------------------

 -------------------
 Title Card Required
 -------------------
 Symbolic Z-matrix:
 Charge =  0 Multiplicity = 1

 SCF Done:  E(RB3LYP) =  -393.144338872     A.U. after   12 cycles
 SCF Done:  E(RB3LYP) =  -393.147363403     A.U. after   10 cycles
 SCF Done:  E(RB3LYP) =  -393.147715422     A.U. after    9 cycles
 SCF Done:  E(RB3LYP) =  -393.147747445     A.U. after    8 cycles
 SCF Done:  E(RB3LYP) =  -393.147775067     A.U. after    8 cycles
 SCF Done:  E(RB3LYP) =  -393.147783410     A.U. after    8 cycles
 SCF Done:  E(RB3LYP) =  -393.147784822     A.U. after    7 cycles
 SCF Done:  E(RB3LYP) =  -393.147785732     A.U. after    8 cycles
 SCF Done:  E(RB3LYP) =  -393.147786206     A.U. after    7 cycles
 SCF Done:  E(RB3LYP) =  -393.147786550     A.U. after    7 cycles
 SCF Done:  E(RB3LYP) =  -393.147787520     A.U. after    8 cycles
 SCF Done:  E(RB3LYP) =  -393.147790292     A.U. after    9 cycles
 SCF Done:  E(RB3LYP) =  -393.147792206     A.U. after    8 cycles
 SCF Done:  E(RB3LYP) =  -393.147794455     A.U. after    8 cycles
 SCF Done:  E(RB3LYP) =  -393.147794780     A.U. after    7 cycles
 SCF Done:  E(RB3LYP) =  -393.147794544     A.U. after    8 cycles
 SCF Done:  E(RB3LYP) =  -393.147794697     A.U. after    6 cycles
 Optimization completed.
    -- Stationary point found.
 Normal termination of Gaussian 16 at Mon May 15 21:08:28 2023.

 ----------------------------------------------------------------------
 #N Geom=AllCheck Guess=TCheck SCRF=Check GenChk RB3LYP/6-31G(2df,p) Fr
 eq
 ----------------------------------------------------------------------

 Structure from the checkpoint file:  "CCqCrC1qCrCCCC1C.chk"
 -------------------
 Title Card Required
 -------------------
 Charge =  0 Multiplicity = 1

                         Standard orientation:
 ---------------------------------------------------------------------
 Center     Atomic      Atomic             Coordinates (Angstroms)
 Number     Number       Type             X           Y           Z
 ---------------------------------------------------------------------
      1          6           0       -2.454002    0.830221    0.041167
      2          6           0       -1.601338   -0.444217    0.183035
      3          6           0       -1.894032   -1.364681   -1.015884
      4          6           0       -0.085112   -0.155609    0.446239
      5          6           0        0.050612    0.557874    1.809862
      6          6           0        0.753957   -1.463087    0.524099
      7          6           0        2.190305   -1.030730    0.209262
      8          6           0        2.007312   -0.024177   -0.940334
      9          6           0        0.615109    0.648826   -0.718984
     10          6           0        0.741796    2.166293   -0.523122
     11          1           0       -3.515122    0.567701   -0.024169
     12          1           0       -2.200926    1.379236   -0.872484
     13          1           0       -2.339503    1.512679    0.886688
     14          1           0       -1.961077   -0.971916    1.078783
     15          1           0       -1.506669   -0.954960   -1.955352
     16          1           0       -2.976491   -1.476532   -1.138384
     17          1           0       -1.480334   -2.368000   -0.892333
     18          1           0       -0.436450   -0.035428    2.591804
     19          1           0       -0.401095    1.551732    1.819912
     20          1           0        1.098376    0.680670    2.099317
     21          1           0        0.431893   -2.175757   -0.240599
     22          1           0        0.649199   -1.962313    1.493423
     23          1           0        2.836717   -1.871119   -0.061023
     24          1           0        2.649324   -0.546333    1.078200
     25          1           0        2.019785   -0.552452   -1.900069
     26          1           0        2.814029    0.714436   -0.980721
     27          1           0        0.020837    0.499282   -1.626162
     28          1           0        1.394746    2.415284    0.319834
     29          1           0       -0.224640    2.648411   -0.350353
     30          1           0        1.179761    2.621105   -1.418351
 ---------------------------------------------------------------------

 SCF Done:  E(RB3LYP) =  -393.147794697     A.U. after    1 cycles

 The electronic state is 1-A.
 Alpha  occ. eigenvalues --  -10.18395 -10.18078 -10.17589 -10.16971 -10.16852
 Alpha  occ. eigenvalues --  -10.16665 -10.16636 -10.16622 -10.16585 -10.16383
 Alpha  occ. eigenvalues --   -0.84096  -0.77998  -0.73676  -0.72263  -0.67734
 Alpha  occ. eigenvalues --   -0.65363  -0.63814  -0.58145  -0.55700  -0.50560
 Alpha  occ. eigenvalues --   -0.47962  -0.45608  -0.44089  -0.43124  -0.41931
 Alpha  occ. eigenvalues --   -0.40431  -0.39848  -0.38422  -0.37547  -0.37368
 Alpha  occ. eigenvalues --   -0.36447  -0.35531  -0.33927  -0.33243  -0.32285
 Alpha  occ. eigenvalues --   -0.31211  -0.30883  -0.29443  -0.29292  -0.28463
 Alpha virt. eigenvalues --    0.07328   0.09787   0.10794   0.11848   0.12544
 Alpha virt. eigenvalues --    0.13092   0.14323   0.14565   0.15409   0.16253
 Alpha virt. eigenvalues --    0.17343   0.17938   0.17970   0.19019   0.19728

 Mulliken charges:
               1
     1  C   -0.400655
     2  C   -0.000262
     3  C   -0.413548
     4  C    0.310615
     5  C   -0.441772
     6  C   -0.238746
     7  C   -0.212627
     8  C   -0.220389
     9  C    0.018853
    10  C   -0.411908
    11  H    0.107106
    12  H    0.115586
    13  H    0.111636
    14  H    0.065280
    15  H    0.115231
    16  H    0.108293
    17  H    0.115743
    18  H    0.105494
    19  H    0.114856
    20  H    0.110565
    21  H    0.090814
    22  H    0.083805
    23  H    0.088304
    24  H    0.096608
    25  H    0.093288
    26  H    0.088470
    27  H    0.066585
    28  H    0.112830
    29  H    0.112790
    30  H    0.107157
 Sum of Mulliken charges =  -0.00000

 Dipole moment (field-independent basis, Debye):
    X=             -0.0712    Y=             -0.0981    Z=             -0.0249  Tot=              0.1237
 Quadrupole moment (field-independent basis, Debye-Ang):
   XX=            -66.6482   YY=            -66.9245   ZZ=            -66.3132
   XY=              0.2516   XZ=             -0.1039   YZ=             -0.0083

  Exact polarizability: 112.974  -0.561 104.046  -0.411   0.116  97.785
 Approx polarizability: 150.880   0.658 147.927  -0.038   0.033 147.982

                      1                      2                      3
                      A                      A                      A
 Frequencies --     28.5861                55.4493               189.8569
 Red. masses --      2.1748                 2.2543                 1.4835
 Frc consts  --      0.0010                 0.0041                 0.0315
 IR Inten    --      0.0048                 0.0055                 0.0207

                      4                      5                      6
                      A                      A                      A
 Frequencies --    196.5612               219.2877               249.0743
 Red. masses --      2.8103                 1.5721                 1.0644
 Frc consts  --      0.0640                 0.0445                 0.0389
 IR Inten    --      0.0493                 0.0086                 0.0038

                      7                      8                      9
                      A                      A                      A
 Frequencies --    250.5026               277.9101               296.6513
 Red. masses --      1.2091                 1.0607                 2.2537
 Frc consts  --      0.0447                 0.0483                 0.1169
 IR Inten    --      0.1062                 0.0241                 0.0370

                     10                     11                     12
                      A                      A                      A
 Frequencies --    318.3655               356.2501               371.1318
 Red. masses --      1.8583                 2.5611                 2.2467
 Frc consts  --      0.1110                 0.1915                 0.1823
 IR Inten    --      0.0003                 0.0580                 0.1288

                     13                     14                     15
                      A                      A                      A
 Frequencies --    396.5925               403.0634               479.6980
 Red. masses --      2.2206                 2.0953                 2.4863
 Frc consts  --      0.2058                 0.2006                 0.3371
 IR Inten    --      0.0593                 0.1282                 0.0909

                     16                     17                     18
                      A                      A                      A
 Frequencies --    492.6814               566.7095               592.6019
 Red. masses --      2.7118                 2.3243                 2.2059
 Frc consts  --      0.3878                 0.4398                 0.4564
 IR Inten    --      0.7783                 0.6837                 0.4619

                     19                     20                     21
                      A                      A                      A
 Frequencies --    700.4843               808.3532               829.4401
 Red. masses --      3.1152                 1.7375                 1.8972
 Frc consts  --      0.9006                 0.6689                 0.7690
 IR Inten    --      0.8486                 0.0147                 0.5075

                     22                     23                     24
                      A                      A                      A
 Frequencies --    847.7280               885.6422               920.7289
 Red. masses --      2.3261                 1.7191                 2.4142
 Frc consts  --      0.9849                 0.7945                 1.2059
 IR Inten    --      0.4445                 0.2197                 0.1986

                     25                     26                     27
                      A                      A                      A
 Frequencies --    925.1874               939.4312               955.9274
 Red. masses --      1.1805                 1.7922                 1.6105
 Frc consts  --      0.5953                 0.9319                 0.8671
 IR Inten    --      0.8190                 0.1663                 0.6697

                     28                     29                     30
                      A                      A                      A
 Frequencies --    968.0247               977.5164              1013.9565
 Red. masses --      1.4991                 1.6889                 2.3890
 Frc consts  --      0.8276                 0.9508                 1.4471
 IR Inten    --      0.8670                 2.3132                 0.3026

                     31                     32                     33
                      A                      A                      A
 Frequencies --   1028.1324              1049.5599              1073.1931
 Red. masses --      1.3203                 1.5764                 1.8320
 Frc consts  --      0.8223                 1.0232                 1.2431
 IR Inten    --      3.4997                 2.2942                 3.2733

                     34                     35                     36
                      A                      A                      A
 Frequencies --   1085.0437              1118.5465              1150.8038
 Red. masses --      1.6220                 1.8560                 1.8349
 Frc consts  --      1.1251                 1.3681                 1.4317
 IR Inten    --      3.6671                 1.3161                 2.2259

                     37                     38                     39
                      A                      A                      A
 Frequencies --   1181.2422              1190.2123              1200.8083
 Red. masses --      1.8582                 2.1301                 2.0094
 Frc consts  --      1.5276                 1.7779                 1.7071
 IR Inten    --      2.7471                 4.1279                 0.1291

                     40                     41                     42
                      A                      A                      A
 Frequencies --   1235.0584              1237.9054              1281.5086
 Red. masses --      1.8763                 2.0321                 1.3430
 Frc consts  --      1.6863                 1.8347                 1.2995
 IR Inten    --      0.3884                 0.8160                 0.8349

                     43                     44                     45
                      A                      A                      A
 Frequencies --   1302.9935              1328.7259              1343.2824
 Red. masses --      1.3108                 1.3449                 1.2863
 Frc consts  --      1.3112                 1.3989                 1.3675
 IR Inten    --      0.8252                 1.9479                 2.2781

                     46                     47                     48
                      A                      A                      A
 Frequencies --   1349.1016              1351.8228              1367.5106
 Red. masses --      1.3670                 1.4102                 1.4184
 Frc consts  --      1.4659                 1.5184                 1.5628
 IR Inten    --      2.0255                 1.0474                 3.4080

                     49                     50                     51
                      A                      A                      A
 Frequencies --   1368.4357              1402.7153              1406.2160
 Red. masses --      1.3856                 1.2391                 1.2548
 Frc consts  --      1.5287                 1.4364                 1.4619
 IR Inten    --      1.0593                 2.9758                 4.3640

                     52                     53                     54
                      A                      A                      A
 Frequencies --   1416.0175              1425.3664              1481.7576
 Red. masses --      1.2174                 1.2128                 1.0617
 Frc consts  --      1.4382                 1.4518                 1.3734
 IR Inten    --     13.2396                 1.7671                 0.7387

                     55                     56                     57
                      A                      A                      A
 Frequencies --   1486.1663              1491.1573              1493.7686
 Red. masses --      1.0585                 1.0510                 1.0699
 Frc consts  --      1.3774                 1.3769                 1.4066
 IR Inten    --      3.1327                 1.9738                 0.0326

                     58                     59                     60
                      A                      A                      A
 Frequencies --   1496.7712              1499.4882              1509.0452
 Red. masses --      1.0598                 1.0561                 1.0465
 Frc consts  --      1.3989                 1.3990                 1.4040
 IR Inten    --      0.2170                 1.0556                 7.9364

                     61                     62                     63
                      A                      A                      A
 Frequencies --   1509.8630              1512.9256              1515.7790
 Red. masses --      1.0632                 1.0816                 1.0503
 Frc consts  --      1.4280                 1.4586                 1.4218
 IR Inten    --      1.4554                 2.0085                10.0068

                     64                     65                     66
                      A                      A                      A
 Frequencies --   1522.5031              2988.1725              3028.8651
 Red. masses --      1.0597                 1.0826                 1.0659
 Frc consts  --      1.4473                 5.6954                 5.7615
 IR Inten    --      1.4631                21.7365                17.0164

                     67                     68                     69
                      A                      A                      A
 Frequencies --   3031.4442              3032.6782              3036.1884
 Red. masses --      1.0372                 1.0424                 1.0433
 Frc consts  --      5.6156                 5.6488                 5.6664
 IR Inten    --      7.6665                19.3750                21.1409

                     70                     71                     72
                      A                      A                      A
 Frequencies --   3037.3635              3039.0749              3043.1580
 Red. masses --      1.0421                 1.0603                 1.0651
 Frc consts  --      5.6641                 5.7699                 5.8115
 IR Inten    --     16.0646                39.3638                52.0482

                     73                     74                     75
                      A                      A                      A
 Frequencies --   3049.7805              3072.8295              3081.1418
 Red. masses --      1.0661                 1.0958                 1.1034
 Frc consts  --      5.8423                 6.0962                 6.1716
 IR Inten    --      7.5440                33.4577                18.5336

                     76                     77                     78
                      A                      A                      A
 Frequencies --   3089.0373              3092.8870              3094.0777
 Red. masses --      1.1009                 1.1012                 1.1020
 Frc consts  --      6.1895                 6.2067                 6.2158
 IR Inten    --      3.3711                18.6834                40.4154

                     79                     80                     81
                      A                      A                      A
 Frequencies --   3096.2742              3100.2328              3109.0302
 Red. masses --      1.1003                 1.0982                 1.1001
 Frc consts  --      6.2149                 6.2191                 6.2652
 IR Inten    --    101.5583                46.0136                11.8441

                     82                     83                     84
                      A                      A                      A
 Frequencies --   3113.3279              3117.9481              3126.0355
 Red. masses --      1.1003                 1.0979                 1.0969
 Frc consts  --      6.2834                 6.2884                 6.3153
 IR Inten    --     47.4210                39.4416                28.1517

 - Thermochemistry -
 -------------------
 Temperature   298.150 Kelvin.  Pressure   1.00000 Atm.
 Atom     1 has atomic number  6 and mass  12.00000

 Molecular mass:   140.15650 amu.
 Principal axes and moments of inertia in atomic units:
                           1         2         3
     Eigenvalues --  1078.649481634.572751894.55237
           X            0.99997   0.00354   0.00738
           Y           -0.00371   0.99973   0.02295
           Z           -0.00729  -0.02297   0.99971
 This molecule is an asymmetric top.
 Rotational symmetry number  1.
 Warning -- assumption of classical behavior for rotation
           may cause significant error
 Rotational temperatures (Kelvin)      0.08030     0.05299     0.04572
 Rotational constants (GHZ):           1.67315     1.10411     0.95260
 Zero-point vibrational energy     737535.9 (Joules/Mol)
                                  176.27530 (Kcal/Mol)
 Warning -- explicit consideration of  18 degrees of freedom as
           vibrations may cause significant error
 Vibrational temperatures:     41.13    79.78   273.16   282.81   315.51
          (Kelvin)            358.36   360.42   399.85   426.82   458.06
                              512.56   533.98   570.61   579.92   690.18
                              708.86   815.37   852.62  1007.84  1163.04
                             1193.38  1219.69  1274.24  1324.72  1331.14
                             1351.63  1375.37  1392.77  1406.43  1458.86
                             1479.25  1510.08  1544.09  1561.14  1609.34
                             1655.75  1699.54  1712.45  1727.70  1776.97
                             1781.07  1843.81  1874.72  1911.74  1932.68
                             1941.06  1944.97  1967.54  1968.87  2018.19
                             2023.23  2037.33  2050.78  2131.92  2138.26
                             2145.44  2149.20  2153.52  2157.43  2171.18
                             2172.36  2176.76  2180.87  2190.54  4299.31
                             4357.86  4361.57  4363.35  4368.40  4370.09
                             4372.55  4378.43  4387.95  4421.12  4433.08
                             4444.44  4449.97  4451.69  4454.85  4460.54
                             4473.20  4479.38  4486.03  4497.67

 Zero-point correction=                           0.280913 (Hartree/Particle)
 Thermal correction to Energy=                    0.292581
 Thermal correction to Enthalpy=                  0.293525
 Thermal correction to Gibbs Free Energy=         0.243987
 Sum of electronic and zero-point Energies=           -392.866882
 Sum of electronic and thermal Energies=              -392.855213
 Sum of electronic and thermal Enthalpies=            -392.854269
 Sum of electronic and thermal Free Energies=         -392.903808

                     E (Thermal)             CV                S
                      KCal/Mol        Cal/Mol-Kelvin    Cal/Mol-Kelvin
 Total                  183.597             45.948            104.263
 Electronic               0.000              0.000              0.000
 Translational            0.889              2.981             40.724
 Rotational               0.889              2.981             29.592
 Vibrational            181.820             39.986             33.947
 Vibration     1          0.593              1.984              5.925
 Vibration     2          0.596              1.975              4.613
 Vibration     3          0.633              1.854              2.229
 Vibration     4          0.636              1.845              2.165
 Vibration     5          0.647              1.812              1.965
 Vibration     6          0.662              1.764              1.737
 Vibration     7          0.663              1.762              1.727
 Vibration     8          0.679              1.714              1.547
 Vibration     9          0.690              1.680              1.436
 Vibration    10          0.705              1.638              1.318
 Vibration    11          0.732              1.562              1.138
 Vibration    12          0.743              1.531              1.075
 Vibration    13          0.763              1.477              0.975
 Vibration    14          0.768              1.464              0.951
 Vibration    15          0.836              1.295              0.711
 Vibration    16          0.848              1.266              0.677
 Vibration    17          0.923              1.103              0.511
 Vibration    18          0.950              1.048              0.463

 Optimization completed.
    -- Stationary point found.
 Normal termination of Gaussian 16 at Mon May 15 22:31:20 2023.
