 Gaussian 16, Revision A.03,
 Gaussian 16:  ES64L-G16RevA.03 25-Dec-2016

 -----------------------------
 # opt freq b3lyp/6-31g(2df,p)
 -----------------------------

 -------------------
 Title Card Required
 -------------------
 Symbolic Z-matrix:
 Charge =  0 Multiplicity = 1

 SCF Done:  E(RB3LYP) =  -733.360936655     A.U. after   13 cycles
 SCF Done:  E(RB3LYP) =  -733.366907046     A.U. after   11 cycles
 SCF Done:  E(RB3LYP) =  -733.367473887     A.U. after    9 cycles
 SCF Done:  E(RB3LYP) =  -733.367536725     A.U. after    9 cycles
 SCF Done:  E(RB3LYP) =  -733.367541118     A.U. after    9 cycles
 SCF Done:  E(RB3LYP) =  -733.367541781     A.U. after    8 cycles
 SCF Done:  E(RB3LYP) =  -733.367543858     A.U. after    7 cycles
 SCF Done:  E(RB3LYP) =  -733.367544252     A.U. after    7 cycles
 SCF Done:  E(RB3LYP) =  -733.367544411     A.U. after    7 cycles
 SCF Done:  E(RB3LYP) =  -733.367544433     A.U. after    6 cycles
 Optimization completed.
    -- Stationary point found.
 Normal termination of Gaussian 16 at Mon May 15 15:29:49 2023.

 ----------------------------------------------------------------------
 #N Geom=AllCheck Guess=TCheck SCRF=Check GenChk RB3LYP/6-31G(2df,p) Fr
 eq
 ----------------------------------------------------------------------

 Structure from the checkpoint file:  "CCqdOrOCCOCCOCCCqCrC.chk"
 -------------------
 Title Card Required
 -------------------
 Charge =  0 Multiplicity = 1

                         Standard orientation:
 ---------------------------------------------------------------------
 Center     Atomic      Atomic             Coordinates (Angstroms)
 Number     Number       Type             X           Y           Z
 ---------------------------------------------------------------------
      1          6           0       -7.209929   -0.713905    0.222834
      2          6           0       -6.047076    0.215778   -0.027126
      3          8           0       -6.125554    1.380168   -0.322968
      4          8           0       -4.873758   -0.437764    0.126168
      5          6           0       -3.691204    0.346998   -0.087520
      6          6           0       -2.509591   -0.581889    0.134961
      7          8           0       -1.342239    0.175825   -0.073380
      8          6           0       -0.154951   -0.566202    0.100218
      9          6           0        1.017221    0.368272   -0.157041
     10          8           0        2.198796   -0.375986    0.017143
     11          6           0        3.374942    0.378723   -0.199891
     12          6           0        4.575583   -0.528675    0.038540
     13          6           0        5.936304    0.107849   -0.293928
     14          6           0        6.260016    1.312812    0.602290
     15          6           0        7.050405   -0.943921   -0.203619
     16          1           0       -8.143855   -0.168350    0.094722
     17          1           0       -7.152133   -1.123662    1.235200
     18          1           0       -7.171731   -1.557942   -0.471629
     19          1           0       -3.667110    1.188753    0.610314
     20          1           0       -3.687198    0.752420   -1.103253
     21          1           0       -2.562851   -1.432795   -0.563470
     22          1           0       -2.541136   -0.993453    1.156870
     23          1           0       -0.112942   -1.416216   -0.599128
     24          1           0       -0.088066   -0.974263    1.121197
     25          1           0        0.972385    1.219930    0.541208
     26          1           0        0.947206    0.777200   -1.178208
     27          1           0        3.390049    1.249567    0.475134
     28          1           0        3.389452    0.770899   -1.232174
     29          1           0        4.435502   -1.428224   -0.572795
     30          1           0        4.566506   -0.860194    1.085145
     31          1           0        5.894946    0.462678   -1.334366
     32          1           0        6.277575    1.018520    1.658765
     33          1           0        5.528774    2.119318    0.493675
     34          1           0        7.243922    1.726789    0.358070
     35          1           0        7.135606   -1.336405    0.816815
     36          1           0        8.021117   -0.516812   -0.476210
     37          1           0        6.855699   -1.790734   -0.869903
 ---------------------------------------------------------------------

 SCF Done:  E(RB3LYP) =  -733.367544433     A.U. after    1 cycles

 The electronic state is 1-A.
 Alpha  occ. eigenvalues --  -19.18141 -19.14763 -19.13929 -19.12350 -10.30620
 Alpha  occ. eigenvalues --  -10.23751 -10.23534 -10.22952 -10.22656 -10.22513
 Alpha  occ. eigenvalues --  -10.19463 -10.18881 -10.17615 -10.17270 -10.17149
 Alpha  occ. eigenvalues --   -1.10021  -1.04487  -1.03214  -1.01222  -0.81088
 Alpha  occ. eigenvalues --   -0.78952  -0.75981  -0.73263  -0.69914  -0.68174
 Alpha  occ. eigenvalues --   -0.63296  -0.61225  -0.60614  -0.56821  -0.55827
 Alpha  occ. eigenvalues --   -0.50956  -0.50510  -0.49213  -0.48741  -0.47635
 Alpha  occ. eigenvalues --   -0.47011  -0.45807  -0.45585  -0.44599  -0.43568
 Alpha  occ. eigenvalues --   -0.42381  -0.41604  -0.40921  -0.40434  -0.38752
 Alpha  occ. eigenvalues --   -0.38110  -0.37638  -0.36295  -0.35766  -0.35136
 Alpha  occ. eigenvalues --   -0.34708  -0.33189  -0.32529  -0.32129  -0.31951
 Alpha  occ. eigenvalues --   -0.31082  -0.29982  -0.26959  -0.26380  -0.25387
 Alpha virt. eigenvalues --    0.01610   0.07596   0.08166   0.09285   0.10095
 Alpha virt. eigenvalues --    0.11982   0.12202   0.12672   0.13538   0.13682
 Alpha virt. eigenvalues --    0.14315   0.14905   0.15197   0.15713   0.15965

 Mulliken charges:
               1
     1  C   -0.478419
     2  C    0.429807
     3  O   -0.344345
     4  O   -0.242663
     5  C   -0.079150
     6  C   -0.071301
     7  O   -0.252316
     8  C   -0.069175
     9  C   -0.070792
    10  O   -0.251045
    11  C   -0.059857
    12  C   -0.184058
    13  C    0.039147
    14  C   -0.381917
    15  C   -0.387914
    16  H    0.149050
    17  H    0.149735
    18  H    0.149736
    19  H    0.130004
    20  H    0.130014
    21  H    0.097645
    22  H    0.097661
    23  H    0.098065
    24  H    0.098200
    25  H    0.095210
    26  H    0.094958
    27  H    0.088185
    28  H    0.083859
    29  H    0.101132
    30  H    0.099111
    31  H    0.071786
    32  H    0.112626
    33  H    0.113950
    34  H    0.110947
    35  H    0.112590
    36  H    0.108945
    37  H    0.110588
 Sum of Mulliken charges =  -0.00000

 Dipole moment (field-independent basis, Debye):
    X=              1.0333    Y=             -1.6794    Z=              0.3661  Tot=              2.0055
 Quadrupole moment (field-independent basis, Debye-Ang):
   XX=            -88.7896   YY=            -96.4875   ZZ=            -90.7874
   XY=             15.6292   XZ=             -4.3612   YZ=              1.2160

  Exact polarizability: 184.920   0.564 123.034  -0.406  -1.122 109.779
 Approx polarizability: 191.636  -2.260 189.460   0.342  -5.612 169.418

                      1                      2                      3
                      A                      A                      A
 Frequencies --     14.5876                19.6704                30.3109
 Red. masses --      4.5868                 3.0262                 4.6266
 Frc consts  --      0.0006                 0.0007                 0.0025
 IR Inten    --      0.1002                 2.3601                 0.4181

                      4                      5                      6
                      A                      A                      A
 Frequencies --     39.7856                48.3097                59.3995
 Red. masses --      3.8835                 1.4235                 1.5721
 Frc consts  --      0.0036                 0.0020                 0.0033
 IR Inten    --      0.0112                 0.2952                 0.0152

                      7                      8                      9
                      A                      A                      A
 Frequencies --     75.5651                83.8120               106.9285
 Red. masses --      2.7557                 4.2367                 2.2349
 Frc consts  --      0.0093                 0.0175                 0.0151
 IR Inten    --      0.2646                 0.3872                 1.4255

                     10                     11                     12
                      A                      A                      A
 Frequencies --    116.9447               135.3151               155.1118
 Red. masses --      2.6120                 2.3603                 4.1223
 Frc consts  --      0.0210                 0.0255                 0.0584
 IR Inten    --      0.3973                 0.1422                 2.4850

                     13                     14                     15
                      A                      A                      A
 Frequencies --    160.3637               168.9629               193.8342
 Red. masses --      3.1780                 4.2032                 2.9247
 Frc consts  --      0.0482                 0.0707                 0.0647
 IR Inten    --      2.7474                 0.3539                 8.5729

                     16                     17                     18
                      A                      A                      A
 Frequencies --    224.5788               242.2584               253.4982
 Red. masses --      1.1327                 2.3392                 1.3196
 Frc consts  --      0.0337                 0.0809                 0.0500
 IR Inten    --      0.3639                 4.1021                 1.1290

                     19                     20                     21
                      A                      A                      A
 Frequencies --    308.2510               336.3497               392.5714
 Red. masses --      3.3272                 3.3728                 2.6196
 Frc consts  --      0.1863                 0.2248                 0.2379
 IR Inten    --      0.0747                 9.9506                 0.7224

                     22                     23                     24
                      A                      A                      A
 Frequencies --    406.5869               449.0379               464.2835
 Red. masses --      2.4312                 2.7846                 3.2218
 Frc consts  --      0.2368                 0.3308                 0.4092
 IR Inten    --      0.7419                 1.5278                 8.2763

                     25                     26                     27
                      A                      A                      A
 Frequencies --    528.0549               544.1280               606.0435
 Red. masses --      3.0287                 4.5917                 2.5966
 Frc consts  --      0.4976                 0.8010                 0.5619
 IR Inten    --      3.4781                 0.9921                 4.7050

                     28                     29                     30
                      A                      A                      A
 Frequencies --    651.1957               794.3244               817.7013
 Red. masses --      4.4445                 1.2517                 1.0942
 Frc consts  --      1.1104                 0.4653                 0.4311
 IR Inten    --      6.2675                 0.3139                 0.0430

                     31                     32                     33
                      A                      A                      A
 Frequencies --    832.0432               836.4057               911.9420
 Red. masses --      1.9664                 1.1861                 5.9407
 Frc consts  --      0.8021                 0.4889                 2.9109
 IR Inten    --      1.2912                 0.6450                24.0370

                     34                     35                     36
                      A                      A                      A
 Frequencies --    927.9980               949.2695               966.0110
 Red. masses --      1.1820                 1.7321                 1.4239
 Frc consts  --      0.5997                 0.9196                 0.7829
 IR Inten    --      1.0613                 2.5127                 0.0203

                     37                     38                     39
                      A                      A                      A
 Frequencies --    984.2533               994.7982              1015.7372
 Red. masses --      2.3048                 1.4732                 4.3456
 Frc consts  --      1.3155                 0.8590                 2.6416
 IR Inten    --      4.8169                 0.7040                34.9726

                     40                     41                     42
                      A                      A                      A
 Frequencies --   1044.4571              1060.5111              1064.5905
 Red. masses --      3.3675                 3.0008                 1.8157
 Frc consts  --      2.1644                 1.9884                 1.2125
 IR Inten    --      1.9879                 1.2301                 6.5136

                     43                     44                     45
                      A                      A                      A
 Frequencies --   1079.7887              1090.5287              1136.5087
 Red. masses --      3.7266                 3.0713                 3.1196
 Frc consts  --      2.5600                 2.1520                 2.3741
 IR Inten    --     85.3371                26.2023                 6.7964

                     46                     47                     48
                      A                      A                      A
 Frequencies --   1156.0157              1162.1961              1170.2109
 Red. masses --      1.5559                 3.7197                 3.9403
 Frc consts  --      1.2251                 2.9602                 3.1791
 IR Inten    --      1.1609                50.4861               109.0048

                     49                     50                     51
                      A                      A                      A
 Frequencies --   1176.1590              1181.2326              1193.9750
 Red. masses --      1.6105                 6.9295                 1.8832
 Frc consts  --      1.3127                 5.6967                 1.5817
 IR Inten    --      3.3235               482.9151                22.2106

                     52                     53                     54
                      A                      A                      A
 Frequencies --   1197.2143              1225.9957              1239.3356
 Red. masses --      1.8139                 1.1528                 1.1986
 Frc consts  --      1.5318                 1.0209                 1.0847
 IR Inten    --      1.7772                 0.3448                11.8526

                     55                     56                     57
                      A                      A                      A
 Frequencies --   1254.3501              1267.9355              1286.2211
 Red. masses --      1.2954                 3.6480                 1.0874
 Frc consts  --      1.2008                 3.4554                 1.0600
 IR Inten    --      8.4684               422.1634                 0.1377

                     58                     59                     60
                      A                      A                      A
 Frequencies --   1291.1457              1301.3935              1313.9614
 Red. masses --      1.0950                 1.2502                 1.1160
 Frc consts  --      1.0755                 1.2475                 1.1352
 IR Inten    --      0.0069                 4.5992                 0.3099

                     61                     62                     63
                      A                      A                      A
 Frequencies --   1338.8371              1361.5221              1367.3483
 Red. masses --      1.2544                 1.3368                 1.3506
 Frc consts  --      1.3248                 1.4601                 1.4877
 IR Inten    --     24.5422                12.8782                 4.2745

                     64                     65                     66
                      A                      A                      A
 Frequencies --   1376.8176              1394.8994              1401.3801
 Red. masses --      1.4396                 1.3720                 1.2640
 Frc consts  --      1.6078                 1.5728                 1.4625
 IR Inten    --      9.2460                55.7062                 4.1268

                     67                     68                     69
                      A                      A                      A
 Frequencies --   1414.7317              1422.9119              1445.0919
 Red. masses --      1.4137                 1.2562                 1.5294
 Frc consts  --      1.6671                 1.4986                 1.8818
 IR Inten    --      2.3070                 2.7375                22.7014

                     70                     71                     72
                      A                      A                      A
 Frequencies --   1469.3952              1470.8286              1476.1898
 Red. masses --      1.1113                 1.4905                 1.0465
 Frc consts  --      1.4138                 1.8998                 1.3436
 IR Inten    --      8.4386                 3.3260                 6.5113

                     73                     74                     75
                      A                      A                      A
 Frequencies --   1483.4497              1489.8514              1497.7865
 Red. masses --      1.0702                 1.0519                 1.0658
 Frc consts  --      1.3875                 1.3757                 1.4087
 IR Inten    --      0.1688                 0.8272                 1.3951

                     76                     77                     78
                      A                      A                      A
 Frequencies --   1505.6736              1510.1745              1511.3770
 Red. masses --      1.0563                 1.0586                 1.0708
 Frc consts  --      1.4109                 1.4224                 1.4412
 IR Inten    --      2.7669                 5.7121                 6.8371

                     79                     80                     81
                      A                      A                      A
 Frequencies --   1516.6160              1523.0131              1537.3183
 Red. masses --      1.0823                 1.0892                 1.0937
 Frc consts  --      1.4668                 1.4886                 1.5229
 IR Inten    --      1.6163                14.6256                 0.3136

                     82                     83                     84
                      A                      A                      A
 Frequencies --   1540.4386              1828.9946              2946.9974
 Red. masses --      1.0862                11.2985                 1.0595
 Frc consts  --      1.5187                22.2688                 5.4215
 IR Inten    --      0.8758               226.2157                32.8543

                     85                     86                     87
                      A                      A                      A
 Frequencies --   2964.1621              2967.8952              2977.8055
 Red. masses --      1.0540                 1.0565                 1.0547
 Frc consts  --      5.4564                 5.4831                 5.5103
 IR Inten    --     24.1058                27.2651                81.8621

                     88                     89                     90
                      A                      A                      A
 Frequencies --   2984.5019              2989.1699              2993.2835
 Red. masses --      1.0954                 1.1038                 1.0816
 Frc consts  --      5.7486                 5.8111                 5.7099
 IR Inten    --     43.5596                 0.2413                17.7281

                     91                     92                     93
                      A                      A                      A
 Frequencies --   2998.5635              3017.9499              3021.8172
 Red. masses --      1.1060                 1.1094                 1.0485
 Frc consts  --      5.8591                 5.9534                 5.6411
 IR Inten    --     49.5067                83.5493                12.5108

                     94                     95                     96
                      A                      A                      A
 Frequencies --   3023.7898              3029.6488              3056.9315
 Red. masses --      1.0413                 1.0422                 1.0365
 Frc consts  --      5.6096                 5.6361                 5.7070
 IR Inten    --     40.1726                29.0490                 1.4634

                     97                     98                     99
                      A                      A                      A
 Frequencies --   3061.9131              3066.6073              3087.8696
 Red. masses --      1.0562                 1.1032                 1.1004
 Frc consts  --      5.8342                 6.1124                 6.1820
 IR Inten    --     17.4548                30.4406                 4.9313

                    100                    101                    102
                      A                      A                      A
 Frequencies --   3094.0977              3099.1098              3103.5894
 Red. masses --      1.1000                 1.1016                 1.1004
 Frc consts  --      6.2045                 6.2335                 6.2450
 IR Inten    --     66.7517                35.9196                43.1358

                    103                    104                    105
                      A                      A                      A
 Frequencies --   3111.7721              3121.5543              3169.4735
 Red. masses --      1.1090                 1.0993                 1.1027
 Frc consts  --      6.3272                 6.3111                 6.5267
 IR Inten    --     23.0537                 5.3802                 7.3243

 - Thermochemistry -
 -------------------
 Temperature   298.150 Kelvin.  Pressure   1.00000 Atm.
 Atom     1 has atomic number  6 and mass  12.00000

 Molecular mass:   218.15181 amu.
 Principal axes and moments of inertia in atomic units:
                           1         2         3
     Eigenvalues --   540.31630********************
           X            0.99999   0.00532  -0.00045
           Y           -0.00531   0.99989   0.01387
           Z            0.00053  -0.01386   0.99990
 This molecule is an asymmetric top.
 Rotational symmetry number  1.
 Warning -- assumption of classical behavior for rotation
           may cause significant error
 Rotational temperatures (Kelvin)      0.16030     0.00495     0.00485
 Rotational constants (GHZ):           3.34016     0.10312     0.10115
 Zero-point vibrational energy     852417.6 (Joules/Mol)
                                  203.73271 (Kcal/Mol)
 Warning -- explicit consideration of  27 degrees of freedom as
           vibrations may cause significant error
 Vibrational temperatures:     20.99    28.30    43.61    57.24    69.51
          (Kelvin)             85.46   108.72   120.59   153.85   168.26
                              194.69   223.17   230.73   243.10   278.88
                              323.12   348.56   364.73   443.50   483.93
                              564.82   584.99   646.07   668.00   759.75
                              782.88   871.96   936.93  1142.86  1176.49
                             1197.12  1203.40  1312.08  1335.18  1365.79
                             1389.87  1416.12  1431.29  1461.42  1502.74
                             1525.84  1531.71  1553.58  1569.03  1635.18
                             1663.25  1672.14  1683.67  1692.23  1699.53
                             1717.86  1722.52  1763.93  1783.13  1804.73
                             1824.28  1850.59  1857.67  1872.42  1890.50
                             1926.29  1958.93  1967.31  1980.93  2006.95
                             2016.27  2035.48  2047.25  2079.16  2114.13
                             2116.19  2123.91  2134.35  2143.56  2154.98
                             2166.33  2172.80  2174.53  2182.07  2191.28
                             2211.86  2216.35  2631.52  4240.07  4264.77
                             4270.14  4284.40  4294.03  4300.75  4306.67
                             4314.26  4342.16  4347.72  4350.56  4358.99
                             4398.24  4405.41  4412.16  4442.76  4451.72
                             4458.93  4465.37  4477.15  4491.22  4560.17

 Zero-point correction=                           0.324669 (Hartree/Particle)
 Thermal correction to Energy=                    0.344014
 Thermal correction to Enthalpy=                  0.344958
 Thermal correction to Gibbs Free Energy=         0.272204
 Sum of electronic and zero-point Energies=           -733.042876
 Sum of electronic and thermal Energies=              -733.023531
 Sum of electronic and thermal Enthalpies=            -733.022586
 Sum of electronic and thermal Free Energies=         -733.095340

                     E (Thermal)             CV                S
                      KCal/Mol        Cal/Mol-Kelvin    Cal/Mol-Kelvin
 Total                  215.872             65.639            153.123
 Electronic               0.000              0.000              0.000
 Translational            0.889              2.981             42.043
 Rotational               0.889              2.981             33.489
 Vibrational            214.095             59.678             77.591
 Vibration     1          0.593              1.986              7.261
 Vibration     2          0.593              1.986              6.667
 Vibration     3          0.594              1.984              5.809
 Vibration     4          0.594              1.981              5.270
 Vibration     5          0.595              1.978              4.885
 Vibration     6          0.597              1.974              4.477
 Vibration     7          0.599              1.965              4.003
 Vibration     8          0.601              1.960              3.800
 Vibration     9          0.606              1.944              3.324
 Vibration    10          0.608              1.935              3.150
 Vibration    11          0.613              1.918              2.869
 Vibration    12          0.620              1.897              2.609
 Vibration    13          0.622              1.891              2.545
 Vibration    14          0.625              1.881              2.447
 Vibration    15          0.635              1.848              2.191
 Vibration    16          0.649              1.804              1.922
 Vibration    17          0.658              1.776              1.786
 Vibration    18          0.665              1.757              1.706
 Vibration    19          0.698              1.658              1.372
 Vibration    20          0.717              1.603              1.229
 Vibration    21          0.760              1.486              0.990
 Vibration    22          0.771              1.456              0.939
 Vibration    23          0.808              1.363              0.799
 Vibration    24          0.822              1.329              0.754
 Vibration    25          0.883              1.188              0.592
 Vibration    26          0.899              1.153              0.556
 Vibration    27          0.965              1.019              0.439

                           ! Non-Optimized Parameters !
 Normal termination of Gaussian 16 at Mon May 15 17:25:37 2023.
