 Gaussian 16, Revision A.03,
 Gaussian 16:  ES64L-G16RevA.03 25-Dec-2016

 -----------------------------
 # opt freq b3lyp/6-31g(2df,p)
 -----------------------------

 -------------------
 Title Card Required
 -------------------
 Symbolic Z-matrix:
 Charge =  0 Multiplicity = 1

 SCF Done:  E(RB3LYP) =  -622.014825429     A.U. after   13 cycles
 SCF Done:  E(RB3LYP) =  -622.020982848     A.U. after   11 cycles
 SCF Done:  E(RB3LYP) =  -622.021999896     A.U. after   10 cycles
 SCF Done:  E(RB3LYP) =  -622.022094764     A.U. after   10 cycles
 SCF Done:  E(RB3LYP) =  -622.022126095     A.U. after    9 cycles
 SCF Done:  E(RB3LYP) =  -622.022141315     A.U. after    8 cycles
 SCF Done:  E(RB3LYP) =  -622.022156279     A.U. after    9 cycles
 SCF Done:  E(RB3LYP) =  -622.022164042     A.U. after    9 cycles
 SCF Done:  E(RB3LYP) =  -622.022172373     A.U. after   10 cycles
 SCF Done:  E(RB3LYP) =  -622.022184123     A.U. after   10 cycles
 SCF Done:  E(RB3LYP) =  -622.024137449     A.U. after    9 cycles
 SCF Done:  E(RB3LYP) =  -622.024194914     A.U. after   10 cycles
 SCF Done:  E(RB3LYP) =  -622.024205658     A.U. after   10 cycles
 SCF Done:  E(RB3LYP) =  -622.024203826     A.U. after    9 cycles
 SCF Done:  E(RB3LYP) =  -622.024206894     A.U. after    9 cycles
 SCF Done:  E(RB3LYP) =  -622.024206948     A.U. after    7 cycles
 SCF Done:  E(RB3LYP) =  -622.024207360     A.U. after    7 cycles
 SCF Done:  E(RB3LYP) =  -622.024207631     A.U. after    7 cycles
 SCF Done:  E(RB3LYP) =  -622.024207757     A.U. after    6 cycles
 Optimization completed.
    -- Stationary point found.
 Normal termination of Gaussian 16 at Mon May 15 19:30:13 2023.

 ----------------------------------------------------------------------
 #N Geom=AllCheck Guess=TCheck SCRF=Check GenChk RB3LYP/6-31G(2df,p) Fr
 eq
 ----------------------------------------------------------------------

 Structure from the checkpoint file:  "CCqOrCCc1cccqCqCrqCrCrcc1.chk"
 -------------------
 Title Card Required
 -------------------
 Charge =  0 Multiplicity = 1

                         Standard orientation:
 ---------------------------------------------------------------------
 Center     Atomic      Atomic             Coordinates (Angstroms)
 Number     Number       Type             X           Y           Z
 ---------------------------------------------------------------------
      1          6           0        5.313718    0.624361    1.271309
      2          6           0        4.494064    0.233096    0.041329
      3          8           0        4.876788   -1.054369   -0.443248
      4          6           0        2.983824    0.310923    0.298608
      5          6           0        2.138796   -0.007737   -0.948699
      6          6           0        0.654542   -0.001570   -0.670086
      7          6           0       -0.007882   -1.157562   -0.245292
      8          6           0       -1.366347   -1.144772    0.044115
      9          6           0       -2.134899    0.022046   -0.076958
     10          6           0       -3.635992   -0.007778    0.248405
     11          6           0       -4.344376   -1.019532   -0.681450
     12          6           0       -3.835192   -0.439479    1.719472
     13          6           0       -4.302311    1.366374    0.058020
     14          6           0       -1.468686    1.173770   -0.504733
     15          6           0       -0.105372    1.160932   -0.794686
     16          1           0        6.382726    0.536856    1.059037
     17          1           0        5.077982   -0.031158    2.119468
     18          1           0        5.102047    1.653291    1.579618
     19          1           0        4.745255    0.912117   -0.784000
     20          1           0        4.732447   -1.685865    0.270724
     21          1           0        2.730831    1.311432    0.671428
     22          1           0        2.723263   -0.389279    1.105951
     23          1           0        2.449772   -0.983667   -1.334053
     24          1           0        2.371212    0.726129   -1.730333
     25          1           0        0.549305   -2.085433   -0.146010
     26          1           0       -1.836372   -2.068683    0.365651
     27          1           0       -3.943248   -2.030002   -0.563360
     28          1           0       -4.225613   -0.734432   -1.731671
     29          1           0       -5.416560   -1.058038   -0.458579
     30          1           0       -3.417493   -1.431593    1.912296
     31          1           0       -4.902126   -0.473054    1.966934
     32          1           0       -3.350097    0.265100    2.402635
     33          1           0       -4.224541    1.717277   -0.975882
     34          1           0       -3.862090    2.126558    0.711129
     35          1           0       -5.367016    1.297344    0.303268
     36          1           0       -2.010024    2.104278   -0.623520
     37          1           0        0.372708    2.077340   -1.130869
 ---------------------------------------------------------------------

 SCF Done:  E(RB3LYP) =  -622.024207757     A.U. after    1 cycles

 The electronic state is 1-A.
 Alpha  occ. eigenvalues --  -19.13139 -10.22927 -10.19727 -10.18208 -10.18185
 Alpha  occ. eigenvalues --  -10.17913 -10.17742 -10.17593 -10.17535 -10.17534
 Alpha  occ. eigenvalues --  -10.17510 -10.17450 -10.16985 -10.16962 -10.16954
 Alpha  occ. eigenvalues --   -1.01297  -0.85395  -0.81476  -0.78380  -0.74647
 Alpha  occ. eigenvalues --   -0.73517  -0.70376  -0.68153  -0.68045  -0.63907
 Alpha  occ. eigenvalues --   -0.59632  -0.59409  -0.57937  -0.54074  -0.48953
 Alpha  occ. eigenvalues --   -0.47657  -0.46982  -0.45450  -0.44843  -0.43557
 Alpha  occ. eigenvalues --   -0.43414  -0.42103  -0.41953  -0.40922  -0.40373
 Alpha  occ. eigenvalues --   -0.39156  -0.38927  -0.37400  -0.37138  -0.36511
 Alpha  occ. eigenvalues --   -0.36123  -0.34676  -0.34575  -0.33860  -0.33026
 Alpha  occ. eigenvalues --   -0.32253  -0.31442  -0.31008  -0.30833  -0.26619
 Alpha  occ. eigenvalues --   -0.24170  -0.22585
 Alpha virt. eigenvalues --    0.00502   0.00873   0.07247   0.08262   0.10624
 Alpha virt. eigenvalues --    0.11286   0.12376   0.12811   0.13456   0.13836
 Alpha virt. eigenvalues --    0.14155   0.15347   0.15553   0.16063   0.16194

 Mulliken charges:
               1
     1  C   -0.404243
     2  C    0.139250
     3  O   -0.428006
     4  C   -0.178475
     5  C   -0.317201
     6  C    0.286816
     7  C   -0.188287
     8  C   -0.176114
     9  C    0.292180
    10  C    0.155666
    11  C   -0.396321
    12  C   -0.396123
    13  C   -0.416767
    14  C   -0.225661
    15  C   -0.191242
    16  H    0.123325
    17  H    0.105605
    18  H    0.116088
    19  H    0.086831
    20  H    0.274624
    21  H    0.097759
    22  H    0.086736
    23  H    0.113839
    24  H    0.097224
    25  H    0.082286
    26  H    0.088609
    27  H    0.111533
    28  H    0.115323
    29  H    0.105878
    30  H    0.111156
    31  H    0.106024
    32  H    0.114284
    33  H    0.114607
    34  H    0.113927
    35  H    0.105360
    36  H    0.090996
    37  H    0.082513
 Sum of Mulliken charges =  -0.00000

 Dipole moment (field-independent basis, Debye):
    X=             -0.3928    Y=              0.2540    Z=              1.3814  Tot=              1.4585
 Quadrupole moment (field-independent basis, Debye-Ang):
   XX=            -93.5427   YY=            -88.5975   ZZ=            -95.5045
   XY=              1.5381   XZ=              5.4317   YZ=             -3.5013

  Exact polarizability: 211.824   0.541 143.518  -7.649  -7.357 114.943
 Approx polarizability: 263.076  -2.315 244.000 -18.039 -18.755 176.008
