 Gaussian 16, Revision A.03,
 Gaussian 16:  ES64L-G16RevA.03 25-Dec-2016

 -----------------------------
 # opt freq b3lyp/6-31g(2df,p)
 -----------------------------

 -------------------
 Title Card Required
 -------------------
 Symbolic Z-matrix:
 Charge =  0 Multiplicity = 1

 SCF Done:  E(RB3LYP) =  -1063.47428393     A.U. after   15 cycles
 SCF Done:  E(RB3LYP) =  -1063.48065946     A.U. after   12 cycles
 SCF Done:  E(RB3LYP) =  -1063.48144739     A.U. after   13 cycles
 SCF Done:  E(RB3LYP) =  -1063.48209113     A.U. after   13 cycles
 SCF Done:  E(RB3LYP) =  -1063.48314853     A.U. after   15 cycles
 SCF Done:  E(RB3LYP) =  -1063.48411748     A.U. after   13 cycles
 SCF Done:  E(RB3LYP) =  -1063.48565301     A.U. after   14 cycles
 SCF Done:  E(RB3LYP) =  -1063.48605745     A.U. after   13 cycles
 SCF Done:  E(RB3LYP) =  -1063.48648288     A.U. after   12 cycles
 SCF Done:  E(RB3LYP) =  -1063.48695816     A.U. after   13 cycles
 SCF Done:  E(RB3LYP) =  -1063.48793545     A.U. after    8 cycles
 SCF Done:  E(RB3LYP) =  -1063.48793588     A.U. after    7 cycles
 SCF Done:  E(RB3LYP) =  -1063.48793599     A.U. after    7 cycles
 SCF Done:  E(RB3LYP) =  -1063.48793604     A.U. after    7 cycles
 SCF Done:  E(RB3LYP) =  -1063.48793609     A.U. after    7 cycles
 SCF Done:  E(RB3LYP) =  -1063.48793617     A.U. after    7 cycles
 SCF Done:  E(RB3LYP) =  -1063.48793622     A.U. after    8 cycles
 SCF Done:  E(RB3LYP) =  -1063.48793627     A.U. after    7 cycles
 SCF Done:  E(RB3LYP) =  -1063.48793631     A.U. after    7 cycles
 Optimization completed.
    -- Stationary point found.
 Normal termination of Gaussian 16 at Tue May 16 00:49:50 2023.

 ----------------------------------------------------------------------
 #N Geom=AllCheck Guess=TCheck SCRF=Check GenChk RB3LYP/6-31G(2df,p) Fr
 eq
 ----------------------------------------------------------------------

 Structure from the checkpoint file:  "CCqOrdNc1nncq-c2ccccc2Crs1.chk"
 -------------------
 Title Card Required
 -------------------
 Charge =  0 Multiplicity = 1

                         Standard orientation:
 ---------------------------------------------------------------------
 Center     Atomic      Atomic             Coordinates (Angstroms)
 Number     Number       Type             X           Y           Z
 ---------------------------------------------------------------------
      1          6           0       -5.451129    0.065937   -0.085769
      2          6           0       -3.955658    0.180689   -0.088913
      3          8           0       -3.446601    1.419969   -0.311210
      4          7           0       -3.215947   -0.834897    0.107309
      5          6           0       -1.845479   -0.827353    0.119255
      6          7           0       -1.184112   -1.940771    0.329691
      7          7           0        0.151518   -1.790524    0.318060
      8          6           0        0.568110   -0.561522    0.103806
      9          6           0        2.006000   -0.250935    0.006043
     10          6           0        2.855868   -1.350611   -0.216437
     11          6           0        4.228929   -1.196585   -0.316619
     12          6           0        4.788475    0.072559   -0.196213
     13          6           0        3.959945    1.164783    0.027262
     14          6           0        2.570900    1.038686    0.132447
     15          6           0        1.764167    2.288670    0.388936
     16         16           0       -0.760539    0.551553   -0.110172
     17          1           0       -5.886210    0.705962    0.691445
     18          1           0       -5.738493   -0.967214    0.100567
     19          1           0       -5.865171    0.386000   -1.049718
     20          1           0       -4.156560    2.058661   -0.441302
     21          1           0        2.402974   -2.329651   -0.305861
     22          1           0        4.857807   -2.062849   -0.491707
     23          1           0        5.861531    0.212682   -0.274214
     24          1           0        4.397076    2.153426    0.129102
     25          1           0        2.430425    3.130126    0.595232
     26          1           0        1.089815    2.179065    1.244059
     27          1           0        1.147257    2.566631   -0.473387
 ---------------------------------------------------------------------

 SCF Done:  E(RB3LYP) =  -1063.48793631     A.U. after    1 cycles

 The electronic state is 1-A.
 Alpha  occ. eigenvalues --  -88.90658 -19.20917 -14.34185 -14.34103 -14.33431
 Alpha  occ. eigenvalues --  -10.30605 -10.26611 -10.24393 -10.21512 -10.20121
 Alpha  occ. eigenvalues --  -10.20018 -10.18557 -10.18435 -10.18286 -10.18162
 Alpha  occ. eigenvalues --  -10.18092  -7.96880  -5.93218  -5.92915  -5.92681
 Alpha  occ. eigenvalues --   -1.10404  -1.01795  -0.93735  -0.86250  -0.81457
 Alpha  occ. eigenvalues --   -0.79451  -0.77060  -0.75620  -0.73843  -0.68878
 Alpha  occ. eigenvalues --   -0.65265  -0.61887  -0.60413  -0.58210  -0.56125
 Alpha  occ. eigenvalues --   -0.52360  -0.50513  -0.49269  -0.47815  -0.46153
 Alpha  occ. eigenvalues --   -0.44566  -0.43992  -0.43339  -0.42296  -0.42017
 Alpha  occ. eigenvalues --   -0.41443  -0.40439  -0.40050  -0.38908  -0.37441
 Alpha  occ. eigenvalues --   -0.35865  -0.34451  -0.33912  -0.33229  -0.29244
 Alpha  occ. eigenvalues --   -0.28494  -0.28141  -0.26652  -0.24399  -0.23963
 Alpha  occ. eigenvalues --   -0.21663
 Alpha virt. eigenvalues --   -0.05593  -0.01468   0.00343   0.02264   0.04402
 Alpha virt. eigenvalues --    0.04996   0.07306   0.09849   0.10851   0.11294
 Alpha virt. eigenvalues --    0.12513   0.14010   0.14575   0.14935   0.15146

 Mulliken charges:
               1
     1  C   -0.494680
     2  C    0.402572
     3  O   -0.375586
     4  N   -0.333251
     5  C    0.308160
     6  N   -0.212608
     7  N   -0.229986
     8  C    0.195023
     9  C    0.089591
    10  C   -0.153531
    11  C   -0.120133
    12  C   -0.117753
    13  C   -0.162371
    14  C    0.223236
    15  C   -0.517518
    16  S   -0.108211
    17  H    0.144874
    18  H    0.173830
    19  H    0.144829
    20  H    0.311325
    21  H    0.130127
    22  H    0.100553
    23  H    0.097719
    24  H    0.089765
    25  H    0.118304
    26  H    0.147641
    27  H    0.148078
 Sum of Mulliken charges =  -0.00000

 Dipole moment (field-independent basis, Debye):
    X=             -2.9932    Y=              5.3517    Z=             -0.9791  Tot=              6.2095
 Quadrupole moment (field-independent basis, Debye-Ang):
   XX=            -63.3585   YY=           -100.5918   ZZ=           -100.3984
   XY=            -11.9170   XZ=              2.1271   YZ=              2.1513

  Exact polarizability: 295.555  -8.700 159.127  -2.422   0.672  78.334
 Approx polarizability: 411.842 -17.111 316.621  -3.813  -7.447 136.178

                      1                      2                      3
                      A                      A                      A
 Frequencies --     14.7813                51.2503                61.1972
 Red. masses --      4.7512                 4.3331                 9.1666
 Frc consts  --      0.0006                 0.0067                 0.0202
 IR Inten    --      3.1407                 0.5312                 0.0844

                      4                      5                      6
                      A                      A                      A
 Frequencies --     83.7878               117.9061               151.7417
 Red. masses --      4.8090                 3.4251                 1.4185
 Frc consts  --      0.0199                 0.0281                 0.0192
 IR Inten    --      3.1764                 3.1238                 0.4074

                      7                      8                      9
                      A                      A                      A
 Frequencies --    172.5865               195.2854               224.1199
 Red. masses --      3.4133                 3.2758                 1.0744
 Frc consts  --      0.0599                 0.0736                 0.0318
 IR Inten    --      2.7286                 0.7931                 0.4723

                     10                     11                     12
                      A                      A                      A
 Frequencies --    257.0411               265.7776               292.6103
 Red. masses --      4.2463                 4.2488                 4.8584
 Frc consts  --      0.1653                 0.1768                 0.2451
 IR Inten    --      1.9683                 2.3520                 1.4541

                     13                     14                     15
                      A                      A                      A
 Frequencies --    358.5244               377.3641               395.8341
 Red. masses --      7.5663                 3.6757                 5.1910
 Frc consts  --      0.5730                 0.3084                 0.4792
 IR Inten    --      1.2852                 0.6896                 0.8868

                     16                     17                     18
                      A                      A                      A
 Frequencies --    398.7512               464.0861               470.5188
 Red. masses --      1.1692                 3.8280                 3.2336
 Frc consts  --      0.1095                 0.4858                 0.4218
 IR Inten    --     91.4975                 2.3204                 1.3562

                     19                     20                     21
                      A                      A                      A
 Frequencies --    522.5187               545.4953               565.7231
 Red. masses --      4.4287                 5.3686                 4.8593
 Frc consts  --      0.7124                 0.9412                 0.9163
 IR Inten    --      2.3068                 0.4283                 1.9169

                     22                     23                     24
                      A                      A                      A
 Frequencies --    592.0101               646.7159               652.6212
 Red. masses --      4.6882                10.3022                 6.9896
 Frc consts  --      0.9681                 2.5387                 1.7540
 IR Inten    --      2.9569                 6.4047                 3.3746

                     25                     26                     27
                      A                      A                      A
 Frequencies --    667.6676               676.1250               682.8752
 Red. masses --      7.4607                 7.6650                 8.3441
 Frc consts  --      1.9595                 2.0645                 2.2925
 IR Inten    --      4.7976                 0.4098                 2.3625

                     28                     29                     30
                      A                      A                      A
 Frequencies --    743.3660               786.2909               791.0424
 Red. masses --      2.3279                 3.6223                 2.0928
 Frc consts  --      0.7579                 1.3195                 0.7716
 IR Inten    --     10.7093                21.9000                22.0195

                     31                     32                     33
                      A                      A                      A
 Frequencies --    816.6246               891.7909               910.1250
 Red. masses --      5.1576                 1.3125                 5.8923
 Frc consts  --      2.0265                 0.6150                 2.8757
 IR Inten    --      0.8269                 0.3677                53.4634

                     34                     35                     36
                      A                      A                      A
 Frequencies --    956.7952               986.0069               992.7357
 Red. masses --      1.3365                 1.8020                 2.3591
 Frc consts  --      0.7209                 1.0322                 1.3698
 IR Inten    --      0.8390                 4.5351                12.6873

                     37                     38                     39
                      A                      A                      A
 Frequencies --   1011.0475              1020.8516              1058.8933
 Red. masses --      1.7094                 1.5282                 1.5797
 Frc consts  --      1.0295                 0.9383                 1.0436
 IR Inten    --      0.3037                 6.2824                 3.7849

                     40                     41                     42
                      A                      A                      A
 Frequencies --   1059.1035              1080.1594              1132.1874
 Red. masses --      1.5628                 2.2110                 2.0519
 Frc consts  --      1.0329                 1.5199                 1.5497
 IR Inten    --      0.5727                 1.9009                 6.4402

                     43                     44                     45
                      A                      A                      A
 Frequencies --   1156.8428              1183.5413              1188.7356
 Red. masses --      3.6592                 3.8230                 1.0938
 Frc consts  --      2.8853                 3.1552                 0.9107
 IR Inten    --     91.0534                 2.1147                 1.0206

                     46                     47                     48
                      A                      A                      A
 Frequencies --   1218.1225              1250.8160              1276.6013
 Red. masses --      2.2740                 3.4261                 2.9447
 Frc consts  --      1.9880                 3.1582                 2.8275
 IR Inten    --      5.1787                 4.3131                 0.0925

                     49                     50                     51
                      A                      A                      A
 Frequencies --   1308.0816              1312.2535              1331.4457
 Red. masses --      2.0327                 2.6623                 5.2279
 Frc consts  --      2.0493                 2.7011                 5.4604
 IR Inten    --     85.9878               122.8444                12.5858

                     52                     53                     54
                      A                      A                      A
 Frequencies --   1402.9009              1416.8328              1424.6792
 Red. masses --      1.4665                 1.2444                 5.3334
 Frc consts  --      1.7005                 1.4718                 6.3781
 IR Inten    --      2.1078                 1.0909                28.3843

                     55                     56                     57
                      A                      A                      A
 Frequencies --   1466.4671              1472.1039              1483.1736
 Red. masses --      1.8605                 1.2012                 1.0468
 Frc consts  --      2.3573                 1.5337                 1.3568
 IR Inten    --      0.5938                11.5928                 8.4393

                     58                     59                     60
                      A                      A                      A
 Frequencies --   1483.6522              1487.8259              1498.2821
 Red. masses --      4.2153                 1.0567                 1.2441
 Frc consts  --      5.4670                 1.3781                 1.6455
 IR Inten    --    112.1822                 7.3359                30.2180

                     61                     62                     63
                      A                      A                      A
 Frequencies --   1520.9389              1606.3984              1639.4651
 Red. masses --      2.4896                 6.0503                 5.6408
 Frc consts  --      3.3931                 9.1989                 8.9330
 IR Inten    --      3.9685                 0.2589                 1.0173

                     64                     65                     66
                      A                      A                      A
 Frequencies --   1764.3463              3028.2518              3030.3094
 Red. masses --      8.3370                 1.0406                 1.0386
 Frc consts  --     15.2908                 5.6225                 5.6190
 IR Inten    --    450.7162                23.1857                15.1420

                     67                     68                     69
                      A                      A                      A
 Frequencies --   3081.7930              3087.3226              3112.4402
 Red. masses --      1.0993                 1.0972                 1.1006
 Frc consts  --      6.1514                 6.1618                 6.2817
 IR Inten    --      9.2648                10.9643                23.0896

                     70                     71                     72
                      A                      A                      A
 Frequencies --   3166.0675              3172.3355              3179.8148
 Red. masses --      1.0855                 1.0973                 1.0888
 Frc consts  --      6.4107                 6.5062                 6.4865
 IR Inten    --      6.1887                 1.1221                15.0163

                     73                     74                     75
                      A                      A                      A
 Frequencies --   3194.7405              3220.7431              3810.4667
 Red. masses --      1.0956                 1.0923                 1.0663
 Frc consts  --      6.5880                 6.6761                 9.1220
 IR Inten    --     26.9468                 4.2999                99.6389

 - Thermochemistry -
 -------------------
 Temperature   298.150 Kelvin.  Pressure   1.00000 Atm.
 Atom     1 has atomic number  6 and mass  12.00000

 Molecular mass:   233.06228 amu.
 Principal axes and moments of inertia in atomic units:
                           1         2         3
     Eigenvalues --  1247.410677604.922388751.66757
           X            1.00000  -0.00081   0.00068
           Y            0.00080   0.99991   0.01351
           Z           -0.00069  -0.01351   0.99991
 This molecule is an asymmetric top.
 Rotational symmetry number  1.
 Warning -- assumption of classical behavior for rotation
           may cause significant error
 Rotational temperatures (Kelvin)      0.06943     0.01139     0.00990
 Rotational constants (GHZ):           1.44679     0.23731     0.20622
 Zero-point vibrational energy     539035.7 (Joules/Mol)
                                  128.83262 (Kcal/Mol)
 Warning -- explicit consideration of  22 degrees of freedom as
           vibrations may cause significant error
 Vibrational temperatures:     21.27    73.74    88.05   120.55   169.64
          (Kelvin)            218.32   248.31   280.97   322.46   369.82
                              382.39   421.00   515.84   542.94   569.52
                              573.71   667.72   676.97   751.79   784.85
                              813.95   851.77   930.48   938.98   960.62
                              972.79   982.51  1069.54  1131.30  1138.13
                             1174.94  1283.09  1309.47  1376.61  1418.64
                             1428.33  1454.67  1468.78  1523.51  1523.81
                             1554.11  1628.97  1664.44  1702.85  1710.33
                             1752.61  1799.65  1836.74  1882.04  1888.04
                             1915.65  2018.46  2038.51  2049.80  2109.92
                             2118.03  2133.96  2134.64  2140.65  2155.69
                             2188.29  2311.25  2358.82  2538.50  4356.98
                             4359.94  4434.01  4441.97  4478.11  4555.27
                             4564.28  4575.04  4596.52  4633.93  5482.41

 Zero-point correction=                           0.205308 (Hartree/Particle)
 Thermal correction to Energy=                    0.219991
 Thermal correction to Enthalpy=                  0.220936
 Thermal correction to Gibbs Free Energy=         0.161928
 Sum of electronic and zero-point Energies=          -1063.282628
 Sum of electronic and thermal Energies=             -1063.267945
 Sum of electronic and thermal Enthalpies=           -1063.267001
 Sum of electronic and thermal Free Energies=        -1063.326009

                     E (Thermal)             CV                S
                      KCal/Mol        Cal/Mol-Kelvin    Cal/Mol-Kelvin
 Total                  138.047             55.466            124.193
 Electronic               0.000              0.000              0.000
 Translational            0.889              2.981             42.240
 Rotational               0.889              2.981             32.784
 Vibrational            136.269             49.504             49.168
 Vibration     1          0.593              1.986              7.235
 Vibration     2          0.596              1.977              4.769
 Vibration     3          0.597              1.973              4.418
 Vibration     4          0.601              1.960              3.800
 Vibration     5          0.608              1.934              3.134
 Vibration     6          0.619              1.901              2.650
 Vibration     7          0.626              1.876              2.407
 Vibration     8          0.636              1.846              2.177
 Vibration     9          0.649              1.804              1.926
 Vibration    10          0.667              1.751              1.682
 Vibration    11          0.672              1.736              1.624
 Vibration    12          0.688              1.688              1.459
 Vibration    13          0.733              1.558              1.128
 Vibration    14          0.748              1.518              1.050
 Vibration    15          0.763              1.479              0.978
 Vibration    16          0.765              1.473              0.967
 Vibration    17          0.822              1.330              0.754
 Vibration    18          0.828              1.315              0.736
 Vibration    19          0.877              1.200              0.604
 Vibration    20          0.901              1.150              0.554
 Vibration    21          0.922              1.105              0.513
 Vibration    22          0.949              1.049              0.464

 Optimization completed.
    -- Stationary point found.
 Normal termination of Gaussian 16 at Tue May 16 02:58:47 2023.
