 Gaussian 16, Revision A.03,
 Gaussian 16:  ES64L-G16RevA.03 25-Dec-2016

 -----------------------------
 # opt freq b3lyp/6-31g(2df,p)
 -----------------------------

 -------------------
 Title Card Required
 -------------------
 Symbolic Z-matrix:
 Charge =  0 Multiplicity = 1

 SCF Done:  E(RB3LYP) =  -579.529595019     A.U. after   14 cycles
 SCF Done:  E(RB3LYP) =  -579.536971084     A.U. after   12 cycles
 SCF Done:  E(RB3LYP) =  -579.537061790     A.U. after   12 cycles
 SCF Done:  E(RB3LYP) =  -579.537543758     A.U. after   11 cycles
 SCF Done:  E(RB3LYP) =  -579.538879858     A.U. after   11 cycles
 SCF Done:  E(RB3LYP) =  -579.539001203     A.U. after   10 cycles
 SCF Done:  E(RB3LYP) =  -579.539084444     A.U. after   11 cycles
 SCF Done:  E(RB3LYP) =  -579.539144898     A.U. after   11 cycles
 SCF Done:  E(RB3LYP) =  -579.539206456     A.U. after   11 cycles
 SCF Done:  E(RB3LYP) =  -579.539431883     A.U. after   12 cycles
 SCF Done:  E(RB3LYP) =  -579.543246313     A.U. after   11 cycles
 SCF Done:  E(RB3LYP) =  -579.543274246     A.U. after   10 cycles
 SCF Done:  E(RB3LYP) =  -579.543357723     A.U. after   10 cycles
 SCF Done:  E(RB3LYP) =  -579.543360312     A.U. after    8 cycles
 SCF Done:  E(RB3LYP) =  -579.543362633     A.U. after    8 cycles
 SCF Done:  E(RB3LYP) =  -579.543362753     A.U. after    8 cycles
 SCF Done:  E(RB3LYP) =  -579.543362769     A.U. after    6 cycles
 SCF Done:  E(RB3LYP) =  -579.543362901     A.U. after    7 cycles
 SCF Done:  E(RB3LYP) =  -579.543362931     A.U. after    6 cycles
 Optimization completed.
    -- Stationary point found.
 Normal termination of Gaussian 16 at Mon May 15 17:45:06 2023.

 ----------------------------------------------------------------------
 #N Geom=AllCheck Guess=TCheck SCRF=Check GenChk RB3LYP/6-31G(2df,p) Fr
 eq
 ----------------------------------------------------------------------

 Structure from the checkpoint file:  "CCqOrCqCrOCqdOrCqCrqCrC.chk"
 -------------------
 Title Card Required
 -------------------
 Charge =  0 Multiplicity = 1

                         Standard orientation:
 ---------------------------------------------------------------------
 Center     Atomic      Atomic             Coordinates (Angstroms)
 Number     Number       Type             X           Y           Z
 ---------------------------------------------------------------------
      1          6           0        3.693230    0.572810   -0.029838
      2          6           0        2.255370    0.420044    0.478046
      3          8           0        1.581711    1.668523    0.460051
      4          6           0        1.481509   -0.653913   -0.307990
      5          6           0        2.013136   -2.067746   -0.117453
      6          8           0        0.103196   -0.677664    0.141113
      7          6           0       -0.774337    0.139582   -0.468840
      8          8           0       -0.475063    0.895949   -1.367421
      9          6           0       -2.179128   -0.008718    0.118750
     10          6           0       -2.644820   -1.472118   -0.034407
     11          6           0       -2.117955    0.369185    1.615469
     12          6           0       -3.132986    0.933926   -0.628594
     13          1           0        4.164338    1.409983    0.490783
     14          1           0        3.707119    0.791985   -1.103854
     15          1           0        4.294048   -0.324257    0.147437
     16          1           0        2.277156    0.115925    1.533498
     17          1           0        1.172199    1.778952   -0.408335
     18          1           0        1.477564   -0.382997   -1.369308
     19          1           0        2.034759   -2.337338    0.943101
     20          1           0        3.024569   -2.159170   -0.519922
     21          1           0        1.372817   -2.782838   -0.640188
     22          1           0       -1.970570   -2.159153    0.481440
     23          1           0       -2.693887   -1.764451   -1.088637
     24          1           0       -3.647053   -1.586625    0.391024
     25          1           0       -1.461379   -0.306828    2.167267
     26          1           0       -3.120975    0.312483    2.050531
     27          1           0       -1.744995    1.389236    1.749908
     28          1           0       -3.170410    0.696639   -1.694885
     29          1           0       -2.815158    1.975079   -0.533492
     30          1           0       -4.143008    0.840595   -0.217164
 ---------------------------------------------------------------------

 SCF Done:  E(RB3LYP) =  -579.543362931     A.U. after    1 cycles

 The electronic state is 1-A.
 Alpha  occ. eigenvalues --  -19.18158 -19.12830 -19.12426 -10.30438 -10.24502
 Alpha  occ. eigenvalues --  -10.23350 -10.20763 -10.18793 -10.17969 -10.17689
 Alpha  occ. eigenvalues --  -10.17604 -10.17087  -1.10231  -1.01591  -1.00738
 Alpha  occ. eigenvalues --   -0.82532  -0.79258  -0.72986  -0.68971  -0.68560
 Alpha  occ. eigenvalues --   -0.66523  -0.62315  -0.58367  -0.55746  -0.50737
 Alpha  occ. eigenvalues --   -0.48646  -0.47609  -0.45871  -0.44432  -0.43226
 Alpha  occ. eigenvalues --   -0.43098  -0.41936  -0.41130  -0.40658  -0.39549
 Alpha  occ. eigenvalues --   -0.38743  -0.38487  -0.37185  -0.36931  -0.36475
 Alpha  occ. eigenvalues --   -0.35401  -0.34121  -0.33402  -0.33127  -0.32911
 Alpha  occ. eigenvalues --   -0.29203  -0.26799  -0.26099
 Alpha virt. eigenvalues --    0.01043   0.07784   0.09212   0.10670   0.11611
 Alpha virt. eigenvalues --    0.12429   0.13176   0.14872   0.15039   0.15343
 Alpha virt. eigenvalues --    0.15846   0.15981   0.16756   0.17049   0.17549

 Mulliken charges:
               1
     1  C   -0.402081
     2  C    0.144441
     3  O   -0.444820
     4  C    0.074347
     5  C   -0.406164
     6  O   -0.259355
     7  C    0.479605
     8  O   -0.403447
     9  C    0.122787
    10  C   -0.411492
    11  C   -0.407149
    12  C   -0.399981
    13  H    0.130777
    14  H    0.115298
    15  H    0.113262
    16  H    0.084499
    17  H    0.291962
    18  H    0.106628
    19  H    0.128385
    20  H    0.129098
    21  H    0.128118
    22  H    0.128070
    23  H    0.117710
    24  H    0.115859
    25  H    0.128008
    26  H    0.112781
    27  H    0.130567
    28  H    0.121515
    29  H    0.124961
    30  H    0.105811
 Sum of Mulliken charges =  -0.00000

 Dipole moment (field-independent basis, Debye):
    X=              0.1585    Y=             -2.2617    Z=              0.2255  Tot=              2.2784
 Quadrupole moment (field-independent basis, Debye-Ang):
   XX=            -67.8993   YY=            -76.7787   ZZ=            -76.2357
   XY=             -2.4450   XZ=             -2.2901   YZ=              0.3711

  Exact polarizability: 127.684  -2.461 102.533   0.384  -2.194  94.889
 Approx polarizability: 154.513  -3.201 149.945   0.261  -9.732 149.879

                      1                      2                      3
                      A                      A                      A
 Frequencies --     27.2812                42.8480                60.4594
 Red. masses --      3.1356                 4.3024                 3.2320
 Frc consts  --      0.0014                 0.0047                 0.0070
 IR Inten    --      0.5929                 4.8231                 1.1230

                      4                      5                      6
                      A                      A                      A
 Frequencies --    133.1053               144.7069               188.0457
 Red. masses --      5.9586                 3.0244                 1.3187
 Frc consts  --      0.0622                 0.0373                 0.0275
 IR Inten    --      4.4743                 2.7238                 0.5678

                      7                      8                      9
                      A                      A                      A
 Frequencies --    203.7597               209.7420               221.5541
 Red. masses --      1.0847                 1.6882                 1.2976
 Frc consts  --      0.0265                 0.0438                 0.0375
 IR Inten    --      0.1059                 0.1643                 0.7356

                     10                     11                     12
                      A                      A                      A
 Frequencies --    242.0026               255.5616               272.1800
 Red. masses --      1.4695                 1.1519                 1.7502
 Frc consts  --      0.0507                 0.0443                 0.0764
 IR Inten    --      2.0158                 0.6701                 4.8885

                     13                     14                     15
                      A                      A                      A
 Frequencies --    286.9216               300.7140               352.3905
 Red. masses --      2.0561                 2.5861                 3.3163
 Frc consts  --      0.0997                 0.1378                 0.2426
 IR Inten    --      1.1442                 2.9357                 8.0118

                     16                     17                     18
                      A                      A                      A
 Frequencies --    354.7765               373.9059               397.7803
 Red. masses --      2.7587                 2.5343                 3.0874
 Frc consts  --      0.2046                 0.2088                 0.2878
 IR Inten    --      0.2555                 5.4948                 8.1186

                     19                     20                     21
                      A                      A                      A
 Frequencies --    399.8888               436.9333               474.0178
 Red. masses --      2.7295                 1.1062                 3.2036
 Frc consts  --      0.2572                 0.1244                 0.4241
 IR Inten    --      5.6706               174.5436                12.7537

                     22                     23                     24
                      A                      A                      A
 Frequencies --    520.3751               560.2025               591.9675
 Red. masses --      3.7239                 3.3709                 3.3104
 Frc consts  --      0.5941                 0.6233                 0.6835
 IR Inten    --      7.0437                 1.0408                 2.1593

                     25                     26                     27
                      A                      A                      A
 Frequencies --    778.5179               798.0676               827.7897
 Red. masses --      6.4624                 3.2761                 2.0336
 Frc consts  --      2.3077                 1.2294                 0.8210
 IR Inten    --      3.6513                 2.0664                 2.6396

                     28                     29                     30
                      A                      A                      A
 Frequencies --    876.4320               914.7298               936.4732
 Red. masses --      2.8256                 2.4605                 2.0794
 Frc consts  --      1.2788                 1.2130                 1.0744
 IR Inten    --     13.2359                 3.3363                 4.1414

                     31                     32                     33
                      A                      A                      A
 Frequencies --    941.5018               948.2171               968.0688
 Red. masses --      1.7623                 1.6164                 1.2009
 Frc consts  --      0.9204                 0.8563                 0.6631
 IR Inten    --      1.2916                 1.3846                 0.0222

                     34                     35                     36
                      A                      A                      A
 Frequencies --    975.6166              1048.5024              1049.1085
 Red. masses --      1.3388                 1.4554                 1.4836
 Frc consts  --      0.7508                 0.9427                 0.9621
 IR Inten    --      3.0145                 0.2238                 0.4758

                     37                     38                     39
                      A                      A                      A
 Frequencies --   1070.2628              1110.2388              1121.4808
 Red. masses --      3.2638                 2.3899                 2.2184
 Frc consts  --      2.2027                 1.7357                 1.6439
 IR Inten    --    131.7084                11.9968                52.6095

                     40                     41                     42
                      A                      A                      A
 Frequencies --   1147.3485              1173.7221              1197.8933
 Red. masses --      2.1421                 2.1447                 3.6958
 Frc consts  --      1.6614                 1.7408                 3.1246
 IR Inten    --     22.1653                 2.2825               363.5739

                     43                     44                     45
                      A                      A                      A
 Frequencies --   1229.0375              1250.1622              1283.1257
 Red. masses --      2.7125                 2.8197                 1.3262
 Frc consts  --      2.4141                 2.5965                 1.2865
 IR Inten    --      2.0543                 7.1589                 3.3163

                     46                     47                     48
                      A                      A                      A
 Frequencies --   1306.7211              1350.9835              1367.6601
 Red. masses --      2.9869                 1.3235                 1.3863
 Frc consts  --      3.0049                 1.4233                 1.5278
 IR Inten    --     85.5554                 5.1555                 7.5394

                     49                     50                     51
                      A                      A                      A
 Frequencies --   1394.2408              1395.9113              1402.7909
 Red. masses --      1.2052                 1.3098                 1.2551
 Frc consts  --      1.3803                 1.5037                 1.4552
 IR Inten    --      3.3240                 2.7860                 5.3996

                     52                     53                     54
                      A                      A                      A
 Frequencies --   1404.7570              1412.1724              1432.8648
 Red. masses --      1.2935                 1.2508                 1.2384
 Frc consts  --      1.5039                 1.4697                 1.4981
 IR Inten    --     10.5165                 3.1288                15.4920

                     55                     56                     57
                      A                      A                      A
 Frequencies --   1440.3856              1475.0206              1483.4592
 Red. masses --      1.1654                 1.0482                 1.0448
 Frc consts  --      1.4246                 1.3436                 1.3546
 IR Inten    --     50.9442                 0.0815                 0.1751

                     58                     59                     60
                      A                      A                      A
 Frequencies --   1487.6965              1489.1136              1493.7988
 Red. masses --      1.0476                 1.0482                 1.0678
 Frc consts  --      1.3661                 1.3694                 1.4039
 IR Inten    --      3.9213                 3.8701                 1.6974

                     61                     62                     63
                      A                      A                      A
 Frequencies --   1497.1890              1497.7022              1500.0047
 Red. masses --      1.0685                 1.0498                 1.0471
 Frc consts  --      1.4112                 1.3874                 1.3882
 IR Inten    --      7.2827                 5.7627                 2.9443

                     64                     65                     66
                      A                      A                      A
 Frequencies --   1501.2090              1520.8137              1775.1328
 Red. masses --      1.0548                 1.0732                11.9954
 Frc consts  --      1.4005                 1.4625                22.2703
 IR Inten    --      5.4311                24.9790               181.8429

                     67                     68                     69
                      A                      A                      A
 Frequencies --   3016.7274              3033.3651              3034.8879
 Red. masses --      1.0831                 1.0378                 1.0355
 Frc consts  --      5.8077                 5.6262                 5.6194
 IR Inten    --     17.0506                15.1041                22.3354

                     70                     71                     72
                      A                      A                      A
 Frequencies --   3037.9593              3045.2103              3047.4157
 Red. masses --      1.0356                 1.0363                 1.0373
 Frc consts  --      5.6312                 5.6622                 5.6757
 IR Inten    --     13.7946                25.3342                11.4018

                     73                     74                     75
                      A                      A                      A
 Frequencies --   3059.6475              3100.0665              3104.1901
 Red. masses --      1.0830                 1.1018                 1.0997
 Frc consts  --      5.9734                 6.2386                 6.2432
 IR Inten    --     12.6169                14.5644                30.6984

                     76                     77                     78
                      A                      A                      A
 Frequencies --   3106.4953              3115.4576              3120.1114
 Red. masses --      1.1020                 1.1009                 1.1015
 Frc consts  --      6.2657                 6.2955                 6.3177
 IR Inten    --     12.3033                36.9450                16.7027

                     79                     80                     81
                      A                      A                      A
 Frequencies --   3124.0847              3124.7733              3126.9181
 Red. masses --      1.1010                 1.1017                 1.1010
 Frc consts  --      6.3314                 6.3381                 6.3427
 IR Inten    --     20.3507                16.2675                11.1172

                     82                     83                     84
                      A                      A                      A
 Frequencies --   3130.5713              3132.7046              3755.4757
 Red. masses --      1.1003                 1.1007                 1.0664
 Frc consts  --      6.3533                 6.3642                 8.8610
 IR Inten    --     36.4733                15.4069                86.4693

 - Thermochemistry -
 -------------------
 Temperature   298.150 Kelvin.  Pressure   1.00000 Atm.
 Atom     1 has atomic number  6 and mass  12.00000

 Molecular mass:   174.12559 amu.
 Principal axes and moments of inertia in atomic units:
                           1         2         3
     Eigenvalues --  1099.837893261.247653640.83528
           X            0.99994  -0.00859  -0.00737
           Y            0.00864   0.99994   0.00627
           Z            0.00732  -0.00633   0.99995
 This molecule is an asymmetric top.
 Rotational symmetry number  1.
 Warning -- assumption of classical behavior for rotation
           may cause significant error
 Rotational temperatures (Kelvin)      0.07875     0.02656     0.02379
 Rotational constants (GHZ):           1.64092     0.55339     0.49569
 Zero-point vibrational energy     691101.3 (Joules/Mol)
                                  165.17716 (Kcal/Mol)
 Warning -- explicit consideration of  24 degrees of freedom as
           vibrations may cause significant error
 Vibrational temperatures:     39.25    61.65    86.99   191.51   208.20
          (Kelvin)            270.56   293.16   301.77   318.77   348.19
                              367.70   391.61   412.82   432.66   507.01
                              510.44   537.97   572.32   575.35   628.65
                              682.01   748.70   806.01   851.71  1120.11
                             1148.24  1191.00  1260.99  1316.09  1347.38
                             1354.61  1364.27  1392.84  1403.69  1508.56
                             1509.43  1539.87  1597.39  1613.56  1650.78
                             1688.72  1723.50  1768.31  1798.70  1846.13
                             1880.08  1943.76  1967.76  2006.00  2008.41
                             2018.30  2021.13  2031.80  2061.57  2072.39
                             2122.23  2134.37  2140.46  2142.50  2149.24
                             2154.12  2154.86  2158.17  2159.90  2188.11
                             2554.02  4340.40  4364.34  4366.53  4370.95
                             4381.38  4384.55  4402.15  4460.30  4466.24
                             4469.55  4482.45  4489.14  4494.86  4495.85
                             4498.94  4504.19  4507.26  5403.29

 Zero-point correction=                           0.263227 (Hartree/Particle)
 Thermal correction to Energy=                    0.278103
 Thermal correction to Enthalpy=                  0.279047
 Thermal correction to Gibbs Free Energy=         0.221715
 Sum of electronic and zero-point Energies=           -579.280136
 Sum of electronic and thermal Energies=              -579.265260
 Sum of electronic and thermal Enthalpies=            -579.264316
 Sum of electronic and thermal Free Energies=         -579.321648

                     E (Thermal)             CV                S
                      KCal/Mol        Cal/Mol-Kelvin    Cal/Mol-Kelvin
 Total                  174.512             55.042            120.666
 Electronic               0.000              0.000              0.000
 Translational            0.889              2.981             41.371
 Rotational               0.889              2.981             30.947
 Vibrational            172.735             49.080             48.349
 Vibration     1          0.593              1.984              6.018
 Vibration     2          0.595              1.980              5.123
 Vibration     3          0.597              1.973              4.442
 Vibration     4          0.613              1.920              2.901
 Vibration     5          0.616              1.908              2.741
 Vibration     6          0.633              1.856              2.247
 Vibration     7          0.639              1.835              2.099
 Vibration     8          0.642              1.826              2.046
 Vibration     9          0.648              1.808              1.946
 Vibration    10          0.658              1.776              1.788
 Vibration    11          0.666              1.753              1.692
 Vibration    12          0.675              1.725              1.582
 Vibration    13          0.684              1.698              1.492
 Vibration    14          0.693              1.672              1.413
 Vibration    15          0.729              1.570              1.155
 Vibration    16          0.731              1.565              1.145
 Vibration    17          0.745              1.526              1.064
 Vibration    18          0.764              1.475              0.971
 Vibration    19          0.766              1.470              0.963
 Vibration    20          0.797              1.390              0.836
 Vibration    21          0.831              1.308              0.726
 Vibration    22          0.875              1.205              0.609
 Vibration    23          0.916              1.117              0.523
 Vibration    24          0.949              1.049              0.464

                           ! Non-Optimized Parameters !
 Normal termination of Gaussian 16 at Mon May 15 19:06:23 2023.
