 Gaussian 16, Revision A.03,
 Gaussian 16:  ES64L-G16RevA.03 25-Dec-2016

 -----------------------------
 # opt freq b3lyp/6-31g(2df,p)
 -----------------------------

 -------------------
 Title Card Required
 -------------------
 Symbolic Z-matrix:
 Charge =  0 Multiplicity = 1

 SCF Done:  E(RB3LYP) =  -689.195818366     A.U. after   14 cycles
 SCF Done:  E(RB3LYP) =  -689.212672490     A.U. after   13 cycles
 SCF Done:  E(RB3LYP) =  -689.220077558     A.U. after   14 cycles
 SCF Done:  E(RB3LYP) =  -689.222665471     A.U. after   14 cycles
 SCF Done:  E(RB3LYP) =  -689.224296707     A.U. after   12 cycles
 SCF Done:  E(RB3LYP) =  -689.224778259     A.U. after   12 cycles
 SCF Done:  E(RB3LYP) =  -689.225244224     A.U. after   13 cycles
 SCF Done:  E(RB3LYP) =  -689.225537563     A.U. after   13 cycles
 SCF Done:  E(RB3LYP) =  -689.226088752     A.U. after   15 cycles
 SCF Done:  E(RB3LYP) =  -689.226028539     A.U. after   13 cycles
 SCF Done:  E(RB3LYP) =  -689.226334361     A.U. after   14 cycles
 SCF Done:  E(RB3LYP) =  -689.226175443     A.U. after   14 cycles
 SCF Done:  E(RB3LYP) =  -689.226391880     A.U. after   13 cycles
 SCF Done:  E(RB3LYP) =  -689.226386094     A.U. after    9 cycles
 SCF Done:  E(RB3LYP) =  -689.226397159     A.U. after   12 cycles
 SCF Done:  E(RB3LYP) =  -689.226391184     A.U. after   12 cycles
 SCF Done:  E(RB3LYP) =  -689.226406327     A.U. after   12 cycles
 SCF Done:  E(RB3LYP) =  -689.226406589     A.U. after    8 cycles
 Optimization completed.
    -- Stationary point found.
 Normal termination of Gaussian 16 at Mon May 15 17:31:15 2023.

 ----------------------------------------------------------------------
 #N Geom=AllCheck Guess=TCheck SCRF=Check GenChk RB3LYP/6-31G(2df,p) Fr
 eq
 ----------------------------------------------------------------------

 Structure from the checkpoint file:  "CdC1CqdOrOC2CqOCdOrCCCC12.chk"
 -------------------
 Title Card Required
 -------------------
 Charge =  0 Multiplicity = 1

                         Standard orientation:
 ---------------------------------------------------------------------
 Center     Atomic      Atomic             Coordinates (Angstroms)
 Number     Number       Type             X           Y           Z
 ---------------------------------------------------------------------
      1          6           0        3.587667   -0.299286   -0.221023
      2          6           0        2.284604   -0.370373    0.022690
      3          6           0        1.532519   -1.673011    0.058515
      4          8           0        1.954928   -2.789655    0.117052
      5          8           0        0.183664   -1.391849    0.030724
      6          6           0        0.014322   -0.001753   -0.287413
      7          6           0       -1.255089    0.625580    0.250460
      8          8           0       -2.424450    0.046159   -0.341097
      9          6           0       -2.963531   -1.042613    0.254920
     10          8           0       -3.917249   -1.602835   -0.190904
     11          6           0       -1.237394    2.114075   -0.138343
     12          6           0        0.054727    2.850104    0.274022
     13          6           0        1.340917    2.129889   -0.186694
     14          6           0        1.254448    0.687016    0.295673
     15          1           0        4.155503   -1.206938   -0.396411
     16          1           0        4.120359    0.644924   -0.253801
     17          1           0        0.005910    0.093112   -1.382511
     18          1           0       -1.295433    0.500758    1.341266
     19          1           0       -2.437271   -1.333600    1.181950
     20          1           0       -2.111998    2.604133    0.299074
     21          1           0       -1.364034    2.164937   -1.226363
     22          1           0        0.083022    2.948988    1.366978
     23          1           0        0.025358    3.868294   -0.125828
     24          1           0        2.221569    2.635329    0.222570
     25          1           0        1.431972    2.158186   -1.279494
     26          1           0        1.110751    0.709560    1.389521
 ---------------------------------------------------------------------

 SCF Done:  E(RB3LYP) =  -689.226406589     A.U. after    1 cycles

 The electronic state is 1-A.
 Alpha  occ. eigenvalues --  -19.19254 -19.19208 -19.13471 -19.13170 -10.31370
 Alpha  occ. eigenvalues --  -10.30923 -10.27009 -10.26296 -10.22340 -10.22083
 Alpha  occ. eigenvalues --  -10.21267 -10.21188 -10.21128 -10.21121  -1.11215
 Alpha  occ. eigenvalues --   -1.10350  -1.03478  -1.02747  -0.87020  -0.82228
 Alpha  occ. eigenvalues --   -0.77300  -0.75760  -0.68794  -0.66149  -0.62022
 Alpha  occ. eigenvalues --   -0.61589  -0.59186  -0.56850  -0.54228  -0.51227
 Alpha  occ. eigenvalues --   -0.50752  -0.49094  -0.47342  -0.46301  -0.44671
 Alpha  occ. eigenvalues --   -0.44094  -0.43740  -0.43654  -0.41652  -0.40328
 Alpha  occ. eigenvalues --   -0.39709  -0.39145  -0.37912  -0.36862  -0.35738
 Alpha  occ. eigenvalues --   -0.35531  -0.34354  -0.31057  -0.30257  -0.28974
 Alpha  occ. eigenvalues --   -0.27827  -0.27342
 Alpha virt. eigenvalues --   -0.05410   0.00529   0.05676   0.05990   0.07396
 Alpha virt. eigenvalues --    0.09487   0.10458   0.11214   0.12490   0.12944
 Alpha virt. eigenvalues --    0.13218   0.14009   0.15137   0.15262   0.15672

 Mulliken charges:
               1
     1  C   -0.408514
     2  C    0.119896
     3  C    0.414191
     4  O   -0.334680
     5  O   -0.265054
     6  C    0.127095
     7  C    0.048687
     8  O   -0.197144
     9  C    0.170314
    10  O   -0.270023
    11  C   -0.216417
    12  C   -0.217426
    13  C   -0.246550
    14  C   -0.076227
    15  H    0.147362
    16  H    0.125165
    17  H    0.104034
    18  H    0.096795
    19  H    0.091520
    20  H    0.119854
    21  H    0.124874
    22  H    0.107654
    23  H    0.111904
    24  H    0.108849
    25  H    0.110688
    26  H    0.103151
 Sum of Mulliken charges =  -0.00000

 Dipole moment (field-independent basis, Debye):
    X=              3.2602    Y=              6.1941    Z=              1.2359  Tot=              7.1079
 Quadrupole moment (field-independent basis, Debye-Ang):
   XX=            -93.0250   YY=            -89.5203   ZZ=            -78.1074
   XY=             -0.8353   XZ=             -5.7589   YZ=             -0.3235

  Exact polarizability: 142.844   2.805 122.279  -1.728  -0.984  79.304
 Approx polarizability: 197.789   8.459 173.932  -1.181  -2.344 133.705

                      1                      2                      3
                      A                      A                      A
 Frequencies --     51.9111                67.2578               110.0795
 Red. masses --      7.0599                 5.5823                 3.2851
 Frc consts  --      0.0112                 0.0149                 0.0235
 IR Inten    --      0.5455                 1.0312                 3.3839

                      4                      5                      6
                      A                      A                      A
 Frequencies --    118.9342               134.0998               196.1038
 Red. masses --      5.8928                 2.4639                 4.5426
 Frc consts  --      0.0491                 0.0261                 0.1029
 IR Inten    --      4.5709                13.8328                 1.5613

                      7                      8                      9
                      A                      A                      A
 Frequencies --    219.8401               246.0129               292.5882
 Red. masses --      3.2578                 3.2377                 4.1718
 Frc consts  --      0.0928                 0.1155                 0.2104
 IR Inten    --      0.7566                 0.7919                 2.4999

                     10                     11                     12
                      A                      A                      A
 Frequencies --    324.7635               334.4173               374.8794
 Red. masses --      4.0143                 2.5683                 5.5472
 Frc consts  --      0.2495                 0.1692                 0.4593
 IR Inten    --      0.4270                 0.4589                 2.7434

                     13                     14                     15
                      A                      A                      A
 Frequencies --    380.5266               460.1044               466.7318
 Red. masses --      4.8525                 3.9355                 3.5901
 Frc consts  --      0.4140                 0.4909                 0.4608
 IR Inten    --      1.5585                 5.3693                 0.2457

                     16                     17                     18
                      A                      A                      A
 Frequencies --    511.0453               559.3852               632.4627
 Red. masses --      2.4145                 3.1947                 3.3790
 Frc consts  --      0.3715                 0.5890                 0.7964
 IR Inten    --      8.7818                 0.8830                 3.0419

                     19                     20                     21
                      A                      A                      A
 Frequencies --    664.5038               699.4896               701.4834
 Red. masses --      4.9998                 2.2767                 3.1974
 Frc consts  --      1.3008                 0.6563                 0.9270
 IR Inten    --      1.9843                 6.4242                 9.7871

                     22                     23                     24
                      A                      A                      A
 Frequencies --    817.4674               834.3234               855.2976
 Red. masses --      3.9954                 2.4792                 2.0342
 Frc consts  --      1.5731                 1.0168                 0.8768
 IR Inten    --      5.9935                 8.4090                 5.9548

                     25                     26                     27
                      A                      A                      A
 Frequencies --    859.7519               875.4155               925.1622
 Red. masses --      1.9401                 1.7947                 2.1364
 Frc consts  --      0.8449                 0.8104                 1.0774
 IR Inten    --      1.3923                 7.5320                10.6755

                     28                     29                     30
                      A                      A                      A
 Frequencies --    959.1232               980.1970              1004.4316
 Red. masses --      2.3157                 1.3722                 2.4038
 Frc consts  --      1.2551                 0.7768                 1.4289
 IR Inten    --      1.4939                24.6886                 8.8250

                     31                     32                     33
                      A                      A                      A
 Frequencies --   1036.9133              1041.2607              1064.9609
 Red. masses --      1.9797                 2.9221                 2.1755
 Frc consts  --      1.2541                 1.8667                 1.4537
 IR Inten    --     25.1513               103.0975                23.1743

                     34                     35                     36
                      A                      A                      A
 Frequencies --   1076.1411              1099.2092              1119.9258
 Red. masses --      2.5518                 2.5732                 3.7926
 Frc consts  --      1.7411                 1.8318                 2.8027
 IR Inten    --    173.9532                27.3020                12.5840

                     37                     38                     39
                      A                      A                      A
 Frequencies --   1139.6352              1143.1882              1166.0738
 Red. masses --      3.1575                 2.5290                 2.5758
 Frc consts  --      2.4162                 1.9473                 2.0635
 IR Inten    --    134.6778                 3.5131               187.3721

                     40                     41                     42
                      A                      A                      A
 Frequencies --   1185.0029              1228.2519              1257.9345
 Red. masses --      3.0017                 1.4072                 1.8395
 Frc consts  --      2.4834                 1.2508                 1.7150
 IR Inten    --    159.2835                38.1205                33.1877

                     43                     44                     45
                      A                      A                      A
 Frequencies --   1264.9730              1271.4327              1327.2901
 Red. masses --      1.6741                 1.3738                 1.2726
 Frc consts  --      1.5783                 1.3084                 1.3210
 IR Inten    --     59.2143                 5.2748                 1.2328

                     46                     47                     48
                      A                      A                      A
 Frequencies --   1334.8220              1352.9227              1363.2761
 Red. masses --      1.3671                 1.2598                 1.4598
 Frc consts  --      1.4352                 1.3586                 1.5985
 IR Inten    --      7.4121                 8.1733                 7.7450

                     49                     50                     51
                      A                      A                      A
 Frequencies --   1371.9894              1379.7876              1393.9520
 Red. masses --      1.3124                 1.3843                 1.6411
 Frc consts  --      1.4555                 1.5527                 1.8788
 IR Inten    --      2.2739                 1.2535                 7.4771

                     52                     53                     54
                      A                      A                      A
 Frequencies --   1422.0157              1441.1351              1444.7671
 Red. masses --      1.3105                 1.1923                 1.2129
 Frc consts  --      1.5614                 1.4590                 1.4916
 IR Inten    --      9.9513                17.7663                 4.4809

                     55                     56                     57
                      A                      A                      A
 Frequencies --   1488.9606              1491.2216              1501.4060
 Red. masses --      1.0828                 1.1082                 1.0963
 Frc consts  --      1.4144                 1.4520                 1.4561
 IR Inten    --      5.9043                 2.7433                 3.9812

                     58                     59                     60
                      A                      A                      A
 Frequencies --   1740.4178              1868.3726              1879.5953
 Red. masses --      7.0488                 9.7815                12.2821
 Frc consts  --     12.5798                20.1179                25.5653
 IR Inten    --      9.5126               371.8770               392.5294

                     61                     62                     63
                      A                      A                      A
 Frequencies --   2958.4619              2977.3780              3007.6840
 Red. masses --      1.0794                 1.0897                 1.0816
 Frc consts  --      5.5664                 5.6916                 5.7650
 IR Inten    --      8.9718                37.7665                 1.8349

                     64                     65                     66
                      A                      A                      A
 Frequencies --   3023.1525              3025.2917              3035.2223
 Red. masses --      1.0844                 1.0686                 1.0612
 Frc consts  --      5.8393                 5.7624                 5.7599
 IR Inten    --     31.4665                14.7815                22.7586

                     67                     68                     69
                      A                      A                      A
 Frequencies --   3045.0425              3079.4989              3084.7096
 Red. masses --      1.0638                 1.0968                 1.0997
 Frc consts  --      5.8114                 6.1284                 6.1653
 IR Inten    --     25.0538                27.8239                32.7987

                     70                     71                     72
                      A                      A                      A
 Frequencies --   3095.6476              3152.7407              3241.9970
 Red. masses --      1.1022                 1.0602                 1.1161
 Frc consts  --      6.2234                 6.2086                 6.9118
 IR Inten    --     26.6615                 3.3020                 1.0967

 - Thermochemistry -
 -------------------
 Temperature   298.150 Kelvin.  Pressure   1.00000 Atm.
 Atom     1 has atomic number  6 and mass  12.00000

 Molecular mass:   196.07356 amu.
 Principal axes and moments of inertia in atomic units:
                           1         2         3
     Eigenvalues --  1903.519603239.682654993.87078
           X            0.99996   0.00621  -0.00679
           Y           -0.00621   0.99998  -0.00033
           Z            0.00679   0.00038   0.99998
 This molecule is an asymmetric top.
 Rotational symmetry number  1.
 Warning -- assumption of classical behavior for rotation
           may cause significant error
 Rotational temperatures (Kelvin)      0.04550     0.02674     0.01734
 Rotational constants (GHZ):           0.94811     0.55707     0.36139
 Zero-point vibrational energy     551965.7 (Joules/Mol)
                                  131.92296 (Kcal/Mol)
 Warning -- explicit consideration of  17 degrees of freedom as
           vibrations may cause significant error
 Vibrational temperatures:     74.69    96.77   158.38   171.12   192.94
          (Kelvin)            282.15   316.30   353.96   420.97   467.26
                              481.15   539.37   547.49   661.99   671.52
                              735.28   804.83   909.97   956.07  1006.41
                             1009.28  1176.15  1200.41  1230.58  1236.99
                             1259.53  1331.10  1379.96  1410.28  1445.15
                             1491.89  1498.14  1532.24  1548.33  1581.52
                             1611.32  1639.68  1644.79  1677.72  1704.95
                             1767.18  1809.89  1820.01  1829.31  1909.67
                             1920.51  1946.55  1961.45  1973.99  1985.21
                             2005.59  2045.96  2073.47  2078.70  2142.28
                             2145.54  2160.19  2504.07  2688.17  2704.32
                             4256.57  4283.78  4327.39  4349.64  4352.72
                             4367.01  4381.14  4430.71  4438.21  4453.95
                             4536.09  4664.51

 Zero-point correction=                           0.210233 (Hartree/Particle)
 Thermal correction to Energy=                    0.222530
 Thermal correction to Enthalpy=                  0.223474
 Thermal correction to Gibbs Free Energy=         0.171187
 Sum of electronic and zero-point Energies=           -689.016174
 Sum of electronic and thermal Energies=              -689.003877
 Sum of electronic and thermal Enthalpies=            -689.002933
 Sum of electronic and thermal Free Energies=         -689.055219

                     E (Thermal)             CV                S
                      KCal/Mol        Cal/Mol-Kelvin    Cal/Mol-Kelvin
 Total                  139.640             47.028            110.046
 Electronic               0.000              0.000              0.000
 Translational            0.889              2.981             41.725
 Rotational               0.889              2.981             31.799
 Vibrational            137.862             41.066             36.522
 Vibration     1          0.596              1.977              4.743
 Vibration     2          0.598              1.970              4.232
 Vibration     3          0.606              1.941              3.268
 Vibration     4          0.609              1.934              3.118
 Vibration     5          0.613              1.919              2.886
 Vibration     6          0.636              1.845              2.169
 Vibration     7          0.647              1.811              1.960
 Vibration     8          0.660              1.769              1.759
 Vibration     9          0.688              1.688              1.459
 Vibration    10          0.709              1.626              1.286
 Vibration    11          0.716              1.607              1.239
 Vibration    12          0.746              1.524              1.060
 Vibration    13          0.750              1.512              1.037
 Vibration    14          0.818              1.339              0.766
 Vibration    15          0.824              1.324              0.747
 Vibration    16          0.866              1.226              0.631
 Vibration    17          0.915              1.119              0.525

 Optimization completed.
    -- Stationary point found.
 Normal termination of Gaussian 16 at Mon May 15 19:13:25 2023.
