 Gaussian 16, Revision A.03,
 Gaussian 16:  ES64L-G16RevA.03 25-Dec-2016

 -----------------------------
 # opt freq b3lyp/6-31g(2df,p)
 -----------------------------

 -------------------
 Title Card Required
 -------------------
 Symbolic Z-matrix:
 Charge =  0 Multiplicity = 1

 SCF Done:  E(RB3LYP) =  -498.410630029     A.U. after   14 cycles
 SCF Done:  E(RB3LYP) =  -498.416300048     A.U. after   12 cycles
 SCF Done:  E(RB3LYP) =  -498.416771813     A.U. after   11 cycles
 SCF Done:  E(RB3LYP) =  -498.417169533     A.U. after   12 cycles
 SCF Done:  E(RB3LYP) =  -498.418465150     A.U. after   11 cycles
 SCF Done:  E(RB3LYP) =  -498.419347545     A.U. after   12 cycles
 SCF Done:  E(RB3LYP) =  -498.419480525     A.U. after   11 cycles
 SCF Done:  E(RB3LYP) =  -498.419491530     A.U. after    9 cycles
 SCF Done:  E(RB3LYP) =  -498.419493336     A.U. after    8 cycles
 SCF Done:  E(RB3LYP) =  -498.419493610     A.U. after    7 cycles
 Optimization completed.
    -- Stationary point found.
 Normal termination of Gaussian 16 at Mon May 15 20:02:44 2023.

 ----------------------------------------------------------------------
 #N Geom=AllCheck Guess=TCheck SCRF=Check GenChk RB3LYP/6-31G(2df,p) Fr
 eq
 ----------------------------------------------------------------------

 Structure from the checkpoint file:  "CdCqCrCqdOrOCC1CO1.chk"
 -------------------
 Title Card Required
 -------------------
 Charge =  0 Multiplicity = 1

                         Standard orientation:
 ---------------------------------------------------------------------
 Center     Atomic      Atomic             Coordinates (Angstroms)
 Number     Number       Type             X           Y           Z
 ---------------------------------------------------------------------
      1          6           0        3.553335   -0.238035    0.166482
      2          6           0        2.349887    0.321123    0.026686
      3          6           0        2.117816    1.802840   -0.094922
      4          6           0        1.172869   -0.602599   -0.006014
      5          8           0        1.215647   -1.806545    0.085113
      6          8           0        0.015481    0.082325   -0.153890
      7          6           0       -1.176002   -0.718761   -0.187031
      8          6           0       -2.331141    0.196978   -0.465042
      9          6           0       -3.678688   -0.125328    0.018359
     10          8           0       -2.894391    0.883515    0.652658
     11          1           0        4.457089    0.360780    0.200524
     12          1           0        3.651162   -1.313969    0.250324
     13          1           0        3.064941    2.345591   -0.047794
     14          1           0        1.464586    2.168580    0.703651
     15          1           0        1.620851    2.050573   -1.038491
     16          1           0       -1.305330   -1.227284    0.773121
     17          1           0       -1.077539   -1.481513   -0.966966
     18          1           0       -2.232381    0.807216   -1.363215
     19          1           0       -3.840141   -1.029611    0.604069
     20          1           0       -4.545595    0.227977   -0.537384
 ---------------------------------------------------------------------

 SCF Done:  E(RB3LYP) =  -498.419493610     A.U. after    1 cycles

 The electronic state is 1-A.
 Alpha  occ. eigenvalues --  -19.18524 -19.15884 -19.12293 -10.30431 -10.24890
 Alpha  occ. eigenvalues --  -10.24719 -10.24415 -10.20582 -10.19123 -10.18550
 Alpha  occ. eigenvalues --   -1.10344  -1.07987  -1.01215  -0.81429  -0.76096
 Alpha  occ. eigenvalues --   -0.69450  -0.67493  -0.63388  -0.59760  -0.55094
 Alpha  occ. eigenvalues --   -0.51922  -0.49713  -0.48325  -0.47412  -0.46344
 Alpha  occ. eigenvalues --   -0.42709  -0.42570  -0.40661  -0.40195  -0.38395
 Alpha  occ. eigenvalues --   -0.37796  -0.37392  -0.35426  -0.32129  -0.30355
 Alpha  occ. eigenvalues --   -0.27679  -0.27094  -0.26720
 Alpha virt. eigenvalues --   -0.03786   0.08059   0.08392   0.09983   0.11069
 Alpha virt. eigenvalues --    0.11594   0.11929   0.13379   0.14088   0.15656
 Alpha virt. eigenvalues --    0.16465   0.17462   0.17603   0.18626   0.18939

 Mulliken charges:
               1
     1  C   -0.345100
     2  C    0.195431
     3  C   -0.478225
     4  C    0.417811
     5  O   -0.370112
     6  O   -0.253638
     7  C   -0.089680
     8  C    0.073706
     9  C   -0.180418
    10  O   -0.225986
    11  H    0.118547
    12  H    0.139557
    13  H    0.119277
    14  H    0.142865
    15  H    0.134978
    16  H    0.128718
    17  H    0.128299
    18  H    0.102923
    19  H    0.119870
    20  H    0.121176
 Sum of Mulliken charges =  -0.00000

 Dipole moment (field-independent basis, Debye):
    X=             -0.6062    Y=              0.5847    Z=             -1.3432  Tot=              1.5855
 Quadrupole moment (field-independent basis, Debye-Ang):
   XX=            -48.8824   YY=            -62.7578   ZZ=            -58.3211
   XY=              7.9383   XZ=              3.6159   YZ=             -1.5453

  Exact polarizability: 119.376  -1.748  78.749   1.942  -3.361  56.124
 Approx polarizability: 150.664  -7.318 122.470   2.355  -2.931  88.708

                      1                      2                      3
                      A                      A                      A
 Frequencies --     29.5271                56.9948                69.2609
 Red. masses --      3.7670                 4.3909                 4.9376
 Frc consts  --      0.0019                 0.0084                 0.0140
 IR Inten    --      1.3093                 4.4511                 1.9050

                      4                      5                      6
                      A                      A                      A
 Frequencies --    105.6734               169.0308               192.2446
 Red. masses --      3.3595                 3.4444                 1.0961
 Frc consts  --      0.0221                 0.0580                 0.0239
 IR Inten    --      3.9342                 0.8233                 0.7283

                      7                      8                      9
                      A                      A                      A
 Frequencies --    236.6506               279.4475               366.6888
 Red. masses --      3.2705                 4.4518                 3.3802
 Frc consts  --      0.1079                 0.2048                 0.2678
 IR Inten    --      0.4306                 4.8888                 3.4594

                     10                     11                     12
                      A                      A                      A
 Frequencies --    394.6352               404.4569               440.1829
 Red. masses --      2.6545                 3.4048                 2.6723
 Frc consts  --      0.2436                 0.3282                 0.3051
 IR Inten    --      1.2989                 0.0956                14.8713

                     13                     14                     15
                      A                      A                      A
 Frequencies --    545.3217               597.3359               671.2975
 Red. masses --      4.6916                 3.6986                 1.3772
 Frc consts  --      0.8220                 0.7776                 0.3657
 IR Inten    --      3.9445                 4.8552                 7.4944

                     16                     17                     18
                      A                      A                      A
 Frequencies --    793.4400               840.9705               860.2728
 Red. masses --      3.6476                 2.4466                 3.4541
 Frc consts  --      1.3530                 1.0195                 1.5061
 IR Inten    --     15.9192                 9.9223                25.8853

                     19                     20                     21
                      A                      A                      A
 Frequencies --    888.5024               945.6704               958.9065
 Red. masses --      2.0012                 2.7105                 2.4795
 Frc consts  --      0.9308                 1.4281                 1.3433
 IR Inten    --      6.3108                24.9314                 6.3950

                     22                     23                     24
                      A                      A                      A
 Frequencies --    990.3534               994.9808              1024.6479
 Red. masses --      1.3436                 1.6887                 1.6322
 Frc consts  --      0.7765                 0.9850                 1.0097
 IR Inten    --     23.6397                 2.8324                 2.6865

                     25                     26                     27
                      A                      A                      A
 Frequencies --   1036.9636              1074.2965              1100.9084
 Red. masses --      3.4132                 1.4922                 1.4326
 Frc consts  --      2.1624                 1.0147                 1.0230
 IR Inten    --     46.9979                 0.1847                 3.0962

                     28                     29                     30
                      A                      A                      A
 Frequencies --   1151.1541              1162.3369              1174.3043
 Red. masses --      1.6862                 1.4073                 1.5333
 Frc consts  --      1.3165                 1.1202                 1.2458
 IR Inten    --      6.9188                10.0391                 3.4285

                     31                     32                     33
                      A                      A                      A
 Frequencies --   1202.5236              1267.9833              1292.9877
 Red. masses --      4.7468                 1.1447                 1.5521
 Frc consts  --      4.0442                 1.0843                 1.5288
 IR Inten    --    450.7615                 2.0659                 4.6992

                     34                     35                     36
                      A                      A                      A
 Frequencies --   1310.7235              1369.6825              1409.0923
 Red. masses --      3.0907                 1.5583                 1.1834
 Frc consts  --      3.1284                 1.7225                 1.3844
 IR Inten    --    199.5277                 8.4402                 4.7182

                     37                     38                     39
                      A                      A                      A
 Frequencies --   1434.7969              1457.9980              1475.8477
 Red. masses --      1.2378                 1.7186                 1.0441
 Frc consts  --      1.5014                 2.1524                 1.3399
 IR Inten    --     15.1467                 5.5376                 6.5556

                     40                     41                     42
                      A                      A                      A
 Frequencies --   1487.5909              1492.1914              1533.3673
 Red. masses --      1.0673                 1.0858                 1.4050
 Frc consts  --      1.3916                 1.4245                 1.9463
 IR Inten    --     21.0707                12.4782                 2.7324

                     43                     44                     45
                      A                      A                      A
 Frequencies --   1702.9433              1796.6963              3040.4892
 Red. masses --      5.7874                11.6849                 1.0357
 Frc consts  --      9.8886                22.2241                 5.6410
 IR Inten    --     28.6139               153.3869                13.6065

                     46                     47                     48
                      A                      A                      A
 Frequencies --   3048.7888              3084.7876              3096.0872
 Red. masses --      1.0577                 1.0508                 1.1022
 Frc consts  --      5.7923                 5.8912                 6.2248
 IR Inten    --     13.7117                26.0072                 3.4213

                     49                     50                     51
                      A                      A                      A
 Frequencies --   3097.2836              3116.0379              3123.3629
 Red. masses --      1.0990                 1.0922                 1.1027
 Frc consts  --      6.2119                 6.2481                 6.3379
 IR Inten    --     11.4490                24.9965                19.3147

                     52                     53                     54
                      A                      A                      A
 Frequencies --   3158.5149              3171.8884              3251.9706
 Red. masses --      1.0607                 1.1193                 1.1156
 Frc consts  --      6.2344                 6.6349                 6.9508
 IR Inten    --      6.7675                25.3567                 1.7349

 - Thermochemistry -
 -------------------
 Temperature   298.150 Kelvin.  Pressure   1.00000 Atm.
 Atom     1 has atomic number  6 and mass  12.00000

 Molecular mass:   142.06299 amu.
 Principal axes and moments of inertia in atomic units:
                           1         2         3
     Eigenvalues --   553.302312850.027563285.72447
           X            0.99972   0.02298   0.00507
           Y           -0.02288   0.99957  -0.01853
           Z           -0.00550   0.01841   0.99982
 This molecule is an asymmetric top.
 Rotational symmetry number  1.
 Warning -- assumption of classical behavior for rotation
           may cause significant error
 Rotational temperatures (Kelvin)      0.15654     0.03039     0.02636
 Rotational constants (GHZ):           3.26176     0.63324     0.54927
 Zero-point vibrational energy     424555.2 (Joules/Mol)
                                  101.47114 (Kcal/Mol)
 Warning -- explicit consideration of  14 degrees of freedom as
           vibrations may cause significant error
 Vibrational temperatures:     42.48    82.00    99.65   152.04   243.20
          (Kelvin)            276.60   340.49   402.06   527.58   567.79
                              581.92   633.33   784.60   859.43   965.85
                             1141.58  1209.97  1237.74  1278.36  1360.61
                             1379.65  1424.90  1431.56  1474.24  1491.96
                             1545.67  1583.96  1656.25  1672.34  1689.56
                             1730.16  1824.35  1860.32  1885.84  1970.67
                             2027.37  2064.35  2097.73  2123.42  2140.31
                             2146.93  2206.17  2450.16  2585.05  4374.59
                             4386.53  4438.32  4454.58  4456.30  4483.28
                             4493.82  4544.40  4563.64  4678.86

 Zero-point correction=                           0.161705 (Hartree/Particle)
 Thermal correction to Energy=                    0.172315
 Thermal correction to Enthalpy=                  0.173259
 Thermal correction to Gibbs Free Energy=         0.123960
 Sum of electronic and zero-point Energies=           -498.257789
 Sum of electronic and thermal Energies=              -498.247179
 Sum of electronic and thermal Enthalpies=            -498.246234
 Sum of electronic and thermal Free Energies=         -498.295534

                     E (Thermal)             CV                S
                      KCal/Mol        Cal/Mol-Kelvin    Cal/Mol-Kelvin
 Total                  108.129             37.347            103.759
 Electronic               0.000              0.000              0.000
 Translational            0.889              2.981             40.765
 Rotational               0.889              2.981             30.028
 Vibrational            106.352             31.385             32.966
 Vibration     1          0.593              1.984              5.861
 Vibration     2          0.596              1.975              4.559
 Vibration     3          0.598              1.969              4.174
 Vibration     4          0.605              1.945              3.347
 Vibration     5          0.625              1.881              2.446
 Vibration     6          0.634              1.851              2.206
 Vibration     7          0.656              1.785              1.828
 Vibration     8          0.680              1.712              1.537
 Vibration     9          0.740              1.541              1.094
 Vibration    10          0.762              1.482              0.983
 Vibration    11          0.770              1.461              0.946
 Vibration    12          0.800              1.383              0.826
 Vibration    13          0.900              1.150              0.554
 Vibration    14          0.955              1.037              0.454

                           ! Non-Optimized Parameters !
 Normal termination of Gaussian 16 at Mon May 15 20:29:44 2023.
