 Gaussian 16, Revision A.03,
 Gaussian 16:  ES64L-G16RevA.03 25-Dec-2016

 -----------------------------
 # opt freq b3lyp/6-31g(2df,p)
 -----------------------------

 -------------------
 Title Card Required
 -------------------
 Symbolic Z-matrix:
 Charge =  0 Multiplicity = 1

 SCF Done:  E(RB3LYP) =  -712.391576615     A.U. after   16 cycles
 SCF Done:  E(RB3LYP) =  -712.472229654     A.U. after   14 cycles
 SCF Done:  E(RB3LYP) =  -712.550559606     A.U. after   14 cycles
 SCF Done:  E(RB3LYP) =  -712.554779567     A.U. after   11 cycles
 SCF Done:  E(RB3LYP) =  -712.617975662     A.U. after   13 cycles
 SCF Done:  E(RB3LYP) =  -712.677373796     A.U. after   14 cycles
 SCF Done:  E(RB3LYP) =  -712.722906595     A.U. after   12 cycles
 SCF Done:  E(RB3LYP) =  -712.768663865     A.U. after   12 cycles
 SCF Done:  E(RB3LYP) =  -712.811195499     A.U. after   12 cycles
 SCF Done:  E(RB3LYP) =  -712.828450040     A.U. after   12 cycles
 SCF Done:  E(RB3LYP) =  -712.847686287     A.U. after   11 cycles
 SCF Done:  E(RB3LYP) =  -712.848545382     A.U. after   11 cycles
 SCF Done:  E(RB3LYP) =  -712.848891297     A.U. after   11 cycles
 SCF Done:  E(RB3LYP) =  -712.848889163     A.U. after   10 cycles
 SCF Done:  E(RB3LYP) =  -712.848973236     A.U. after    9 cycles
 SCF Done:  E(RB3LYP) =  -712.848978071     A.U. after    8 cycles
 SCF Done:  E(RB3LYP) =  -712.848979183     A.U. after    8 cycles
 SCF Done:  E(RB3LYP) =  -712.848979444     A.U. after    7 cycles
 SCF Done:  E(RB3LYP) =  -712.848979906     A.U. after    7 cycles
 Optimization completed.
    -- Stationary point found.

 The electronic state is 1-A.
 Alpha  occ. eigenvalues --  -14.31489 -10.21190 -10.21116 -10.19834 -10.18687
 Alpha  occ. eigenvalues --  -10.18473 -10.18253 -10.18239 -10.18151 -10.18053
 Alpha  occ. eigenvalues --  -10.17981 -10.17937 -10.17898 -10.17830 -10.17805
 Alpha  occ. eigenvalues --  -10.17790 -10.17746 -10.17628  -0.93427  -0.84851
 Alpha  occ. eigenvalues --   -0.84806  -0.79023  -0.77654  -0.75273  -0.74416
 Alpha  occ. eigenvalues --   -0.71902  -0.69259  -0.66846  -0.62577  -0.61455
 Alpha  occ. eigenvalues --   -0.59727  -0.58976  -0.57271  -0.51846  -0.50350
 Alpha  occ. eigenvalues --   -0.50148  -0.47770  -0.46466  -0.46073  -0.44597
 Alpha  occ. eigenvalues --   -0.43770  -0.42845  -0.42671  -0.41801  -0.40940
 Alpha  occ. eigenvalues --   -0.39753  -0.39514  -0.38719  -0.38345  -0.37419
 Alpha  occ. eigenvalues --   -0.37159  -0.35696  -0.34231  -0.33853  -0.33178
 Alpha  occ. eigenvalues --   -0.33127  -0.31472  -0.31164  -0.24186  -0.23792
 Alpha  occ. eigenvalues --   -0.23427  -0.23177  -0.20629
 Alpha virt. eigenvalues --   -0.00594   0.00612   0.00866   0.01038   0.08730
 Alpha virt. eigenvalues --    0.10369   0.10552   0.11119   0.12578   0.13202
 Alpha virt. eigenvalues --    0.14239   0.14563   0.15503   0.15690   0.16372

 Mulliken charges:
               1
     1  C   -0.334705
     2  N   -0.068361
     3  C   -0.143777
     4  C   -0.322590
     5  C    0.222068
     6  C   -0.192971
     7  C   -0.118238
     8  C   -0.121144
     9  C   -0.186492
    10  C    0.249558
    11  C   -0.141490
    12  C   -0.337495
    13  C    0.224406
    14  C   -0.191129
    15  C   -0.117864
    16  C   -0.121070
    17  C   -0.192595
    18  C    0.251936
    19  H    0.118229
    20  H    0.104195
    21  H    0.116073
    22  H    0.073657
    23  H    0.106229
    24  H    0.114327
    25  H    0.085721
    26  H    0.092335
    27  H    0.092264
    28  H    0.083440
    29  H    0.076726
    30  H    0.112841
    31  H    0.109704
    32  H    0.085646
    33  H    0.093048
    34  H    0.092747
    35  H    0.084773
 Sum of Mulliken charges =  -0.00000

 Dipole moment (field-independent basis, Debye):
    X=              0.5133    Y=              0.1961    Z=              0.2255  Tot=              0.5939
 Quadrupole moment (field-independent basis, Debye-Ang):
   XX=           -104.4182   YY=           -103.7073   ZZ=            -97.6001
   XY=              1.1858   XZ=             -2.2860   YZ=              2.1657

 Normal termination of Gaussian 16 at Mon May 15 20:59:21 2023.

 ----------------------------------------------------------------------
 #N Geom=AllCheck Guess=TCheck SCRF=Check GenChk RB3LYP/6-31G(2df,p) Fr
 eq
 ----------------------------------------------------------------------

 Structure from the checkpoint file:  "CN1C2Cc3ccccc3C1Cc1ccccc12.chk"
 -------------------
 Title Card Required
 -------------------
 Charge =  0 Multiplicity = 1

                         Standard orientation:
 ---------------------------------------------------------------------
 Center     Atomic      Atomic             Coordinates (Angstroms)
 Number     Number       Type             X           Y           Z
 ---------------------------------------------------------------------
      1          6           0        0.930020    3.058188   -0.159537
      2          7           0        0.019149    1.957281   -0.428776
      3          6           0        0.594712    0.901997   -1.265325
      4          6           0       -0.579488    0.137146   -1.906276
      5          6           0       -1.618217   -0.259980   -0.881987
      6          6           0       -2.591044   -1.215571   -1.190387
      7          6           0       -3.574377   -1.563974   -0.272702
      8          6           0       -3.595530   -0.953221    0.980093
      9          6           0       -2.628829   -0.006731    1.297023
     10          6           0       -1.636680    0.347849    0.378984
     11          6           0       -0.574775    1.361720    0.772229
     12          6           0        0.501142    0.713437    1.680429
     13          6           0        1.467432   -0.141910    0.887215
     14          6           0        2.326082   -1.030370    1.542629
     15          6           0        3.246311   -1.795805    0.837596
     16          6           0        3.322597   -1.678337   -0.549597
     17          6           0        2.472266   -0.799892   -1.209419
     18          6           0        1.539462   -0.029912   -0.508401
     19          1           0        1.200380    3.539946   -1.105202
     20          1           0        1.867413    2.770855    0.347481
     21          1           0        0.423520    3.803793    0.462425
     22          1           0        1.160748    1.387179   -2.068441
     23          1           0       -0.212349   -0.748038   -2.437129
     24          1           0       -1.041817    0.792547   -2.655147
     25          1           0       -2.572199   -1.690261   -2.167700
     26          1           0       -4.320897   -2.307508   -0.531999
     27          1           0       -4.361747   -1.211618    1.703500
     28          1           0       -2.644521    0.473217    2.272199
     29          1           0       -1.061639    2.167510    1.334097
     30          1           0        0.021055    0.116684    2.463124
     31          1           0        1.058582    1.504222    2.200377
     32          1           0        2.266227   -1.119135    2.624094
     33          1           0        3.902241   -2.479937    1.365897
     34          1           0        4.042288   -2.265279   -1.110821
     35          1           0        2.532163   -0.702939   -2.290728
 ---------------------------------------------------------------------

 SCF Done:  E(RB3LYP) =  -712.848979906     A.U. after    1 cycles
