 Gaussian 16, Revision A.03,
 Gaussian 16:  ES64L-G16RevA.03 25-Dec-2016

 -----------------------------
 # opt freq b3lyp/6-31g(2df,p)
 -----------------------------

 -------------------
 Title Card Required
 -------------------
 Symbolic Z-matrix:
 Charge =  0 Multiplicity = 1

 SCF Done:  E(RB3LYP) =  -683.494465003     A.U. after   14 cycles
 SCF Done:  E(RB3LYP) =  -683.500961700     A.U. after   13 cycles
 SCF Done:  E(RB3LYP) =  -683.504729533     A.U. after   12 cycles
 SCF Done:  E(RB3LYP) =  -683.507615755     A.U. after   12 cycles
 SCF Done:  E(RB3LYP) =  -683.508993860     A.U. after   11 cycles
 SCF Done:  E(RB3LYP) =  -683.510706053     A.U. after   12 cycles
 SCF Done:  E(RB3LYP) =  -683.512697653     A.U. after   14 cycles
 SCF Done:  E(RB3LYP) =  -683.513057907     A.U. after   12 cycles
 SCF Done:  E(RB3LYP) =  -683.515094317     A.U. after   11 cycles
 SCF Done:  E(RB3LYP) =  -683.517757610     A.U. after   12 cycles
 SCF Done:  E(RB3LYP) =  -683.520295934     A.U. after   10 cycles
 SCF Done:  E(RB3LYP) =  -683.520468959     A.U. after   12 cycles
 SCF Done:  E(RB3LYP) =  -683.520475942     A.U. after   10 cycles
 SCF Done:  E(RB3LYP) =  -683.520480058     A.U. after   10 cycles
 SCF Done:  E(RB3LYP) =  -683.520490128     A.U. after   10 cycles
 SCF Done:  E(RB3LYP) =  -683.520496186     A.U. after    9 cycles
 SCF Done:  E(RB3LYP) =  -683.520497421     A.U. after    9 cycles
 SCF Done:  E(RB3LYP) =  -683.520497609     A.U. after    7 cycles
 SCF Done:  E(RB3LYP) =  -683.520497702     A.U. after    7 cycles
 Optimization completed.
    -- Stationary point found.
 Normal termination of Gaussian 16 at Tue May 16 00:17:21 2023.

 ----------------------------------------------------------------------
 #N Geom=AllCheck Guess=TCheck SCRF=Check GenChk RB3LYP/6-31G(2df,p) Fr
 eq
 ----------------------------------------------------------------------

 Structure from the checkpoint file:  "Cn1nccc1CNc1cccqCtNrcc1.chk"
 -------------------
 Title Card Required
 -------------------
 Charge =  0 Multiplicity = 1

                         Standard orientation:
 ---------------------------------------------------------------------
 Center     Atomic      Atomic             Coordinates (Angstroms)
 Number     Number       Type             X           Y           Z
 ---------------------------------------------------------------------
      1          6           0       -2.921299    1.989058   -0.552352
      2          7           0       -3.389311    0.672276   -0.165155
      3          7           0       -4.659093    0.515654    0.257176
      4          6           0       -4.790855   -0.790646    0.473667
      5          6           0       -3.601335   -1.486284    0.188473
      6          6           0       -2.713695   -0.510352   -0.227112
      7          6           0       -1.286094   -0.616009   -0.656903
      8          7           0       -0.394266   -0.053633    0.354445
      9          6           0        0.980396   -0.068540    0.226822
     10          6           0        1.620381   -0.339362   -0.996232
     11          6           0        3.002809   -0.300376   -1.090853
     12          6           0        3.793331   -0.000083    0.025307
     13          6           0        5.215061    0.034593   -0.077318
     14          7           0        6.370653    0.063297   -0.159564
     15          6           0        3.157345    0.262447    1.250692
     16          6           0        1.781249    0.229005    1.348260
     17          1           0       -3.583101    2.721353   -0.091276
     18          1           0       -2.952193    2.117345   -1.640067
     19          1           0       -1.898153    2.138021   -0.200866
     20          1           0       -5.732611   -1.180864    0.830115
     21          1           0       -3.405362   -2.543559    0.270692
     22          1           0       -1.130978   -0.074614   -1.598655
     23          1           0       -1.059451   -1.673016   -0.858883
     24          1           0       -0.739615   -0.144228    1.298455
     25          1           0        1.040042   -0.584004   -1.876647
     26          1           0        3.481916   -0.510900   -2.040159
     27          1           0        3.756839    0.492242    2.123954
     28          1           0        1.303010    0.438358    2.300318
 ---------------------------------------------------------------------

 SCF Done:  E(RB3LYP) =  -683.520497702     A.U. after    1 cycles

 The electronic state is 1-A.
 Alpha  occ. eigenvalues --  -14.41317 -14.36866 -14.34746 -14.31658 -10.25190
 Alpha  occ. eigenvalues --  -10.25135 -10.23523 -10.23134 -10.22176 -10.21230
 Alpha  occ. eigenvalues --  -10.21191 -10.20965 -10.20466 -10.20340 -10.20255
 Alpha  occ. eigenvalues --  -10.18621  -1.05433  -0.96290  -0.89466  -0.86665
 Alpha  occ. eigenvalues --   -0.84713  -0.81154  -0.76947  -0.76659  -0.71274
 Alpha  occ. eigenvalues --   -0.70612  -0.64459  -0.62660  -0.60919  -0.56850
 Alpha  occ. eigenvalues --   -0.56126  -0.54889  -0.52276  -0.49504  -0.48039
 Alpha  occ. eigenvalues --   -0.47562  -0.46080  -0.45007  -0.44576  -0.44021
 Alpha  occ. eigenvalues --   -0.43174  -0.41232  -0.40832  -0.40187  -0.39833
 Alpha  occ. eigenvalues --   -0.38892  -0.36569  -0.35659  -0.34694  -0.31949
 Alpha  occ. eigenvalues --   -0.30448  -0.29219  -0.27399  -0.25628  -0.25398
 Alpha  occ. eigenvalues --   -0.22127
 Alpha virt. eigenvalues --   -0.03435  -0.02092   0.00193   0.04766   0.05946
 Alpha virt. eigenvalues --    0.07317   0.07539   0.08593   0.09099   0.10573
 Alpha virt. eigenvalues --    0.12386   0.13214   0.13796   0.14076   0.15296

 Mulliken charges:
               1
     1  C   -0.338228
     2  N   -0.004859
     3  N   -0.258023
     4  C   -0.001959
     5  C   -0.311643
     6  C    0.336181
     7  C   -0.282418
     8  N   -0.398814
     9  C    0.373960
    10  C   -0.192794
    11  C   -0.187724
    12  C    0.158278
    13  C    0.193354
    14  N   -0.344370
    15  C   -0.176342
    16  C   -0.194776
    17  H    0.163974
    18  H    0.141323
    19  H    0.152749
    20  H    0.116537
    21  H    0.108117
    22  H    0.128990
    23  H    0.126541
    24  H    0.246974
    25  H    0.104810
    26  H    0.121094
    27  H    0.121730
    28  H    0.097337
 Sum of Mulliken charges =  -0.00000

 Dipole moment (field-independent basis, Debye):
    X=             -4.7594    Y=             -0.4772    Z=             -0.0147  Tot=              4.7833
 Quadrupole moment (field-independent basis, Debye-Ang):
   XX=           -147.9052   YY=            -88.5268   ZZ=            -84.9696
   XY=              2.4121   XZ=              2.9289   YZ=             -0.1813

  Exact polarizability: 254.265   8.056 106.605 -10.386   3.582 115.869
 Approx polarizability: 362.063   7.793 175.233 -21.312   9.702 200.580

                      1                      2                      3
                      A                      A                      A
 Frequencies --     25.8500                41.2256                61.0184
 Red. masses --      5.8676                 3.4752                 6.1808
 Frc consts  --      0.0023                 0.0035                 0.0136
 IR Inten    --      2.8793                 0.2579                 4.2068

                      4                      5                      6
                      A                      A                      A
 Frequencies --     84.5584               100.6081               129.0902
 Red. masses --      5.2777                 1.0681                 6.4866
 Frc consts  --      0.0222                 0.0064                 0.0637
 IR Inten    --      1.0467                 0.7898                 1.7132

                      7                      8                      9
                      A                      A                      A
 Frequencies --    145.6625               184.5021               200.8451
 Red. masses --      5.0414                 5.8841                 3.3628
 Frc consts  --      0.0630                 0.1180                 0.0799
 IR Inten    --      6.7639                 2.4060                 5.7379

                     10                     11                     12
                      A                      A                      A
 Frequencies --    265.9696               275.9790               292.3985
 Red. masses --      3.7446                 3.1247                 5.5861
 Frc consts  --      0.1561                 0.1402                 0.2814
 IR Inten    --      1.4117                 0.9674                 1.5134

                     13                     14                     15
                      A                      A                      A
 Frequencies --    408.7262               414.6748               434.1934
 Red. masses --      2.8384                 3.2264                 2.5559
 Frc consts  --      0.2794                 0.3269                 0.2839
 IR Inten    --     50.9748                 0.3834                15.4165

                     16                     17                     18
                      A                      A                      A
 Frequencies --    460.2565               493.7681               526.1160
 Red. masses --      4.8209                 4.6230                 1.7988
 Frc consts  --      0.6017                 0.6641                 0.2934
 IR Inten    --     21.5233                 0.8647               120.8773

                     19                     20                     21
                      A                      A                      A
 Frequencies --    567.8883               575.1536               658.4953
 Red. masses --      6.5333                 3.0347                 6.8534
 Frc consts  --      1.2414                 0.5915                 1.7509
 IR Inten    --      3.3849                15.7566                 0.3777

                     22                     23                     24
                      A                      A                      A
 Frequencies --    664.9827               671.6288               697.2879
 Red. masses --      5.1323                 4.4145                 5.4441
 Frc consts  --      1.3372                 1.1733                 1.5596
 IR Inten    --      5.1097                 2.1707                 4.1155

                     25                     26                     27
                      A                      A                      A
 Frequencies --    737.2361               746.4364               786.0636
 Red. masses --      4.7015                 3.8192                 2.9050
 Frc consts  --      1.5056                 1.2537                 1.0576
 IR Inten    --      3.4717                 0.6406                 6.7575

                     28                     29                     30
                      A                      A                      A
 Frequencies --    804.4092               828.4043               846.7212
 Red. masses --      1.4556                 1.2748                 1.7822
 Frc consts  --      0.5549                 0.5154                 0.7528
 IR Inten    --     27.5934                 0.8806                39.5332

                     31                     32                     33
                      A                      A                      A
 Frequencies --    878.0882               889.3641               941.9776
 Red. masses --      3.6948                 1.3850                 3.3992
 Frc consts  --      1.6785                 0.6454                 1.7771
 IR Inten    --      7.1341                 1.8611                19.3183

                     34                     35                     36
                      A                      A                      A
 Frequencies --    944.3873               967.2034               992.9121
 Red. masses --      1.4812                 1.3290                 1.6927
 Frc consts  --      0.7783                 0.7325                 0.9832
 IR Inten    --      2.5916                 0.7921                14.4062

                     37                     38                     39
                      A                      A                      A
 Frequencies --   1021.9922              1037.1607              1068.4769
 Red. masses --      2.8467                 1.8192                 1.4659
 Frc consts  --      1.7518                 1.1530                 0.9860
 IR Inten    --      0.2002                 7.3855                 1.3023

                     40                     41                     42
                      A                      A                      A
 Frequencies --   1095.5159              1148.1635              1151.4109
 Red. masses --      4.7259                 1.3682                 1.3159
 Frc consts  --      3.3417                 1.0627                 1.0279
 IR Inten    --     25.1417                10.3016                 4.4584

                     43                     44                     45
                      A                      A                      A
 Frequencies --   1187.3966              1200.5238              1233.4308
 Red. masses --      2.1265                 1.3144                 1.7209
 Frc consts  --      1.7665                 1.1161                 1.5425
 IR Inten    --      1.9630                55.0037                 1.9358

                     46                     47                     48
                      A                      A                      A
 Frequencies --   1236.4283              1252.4180              1284.4818
 Red. masses --      2.3492                 1.3041                 2.1763
 Frc consts  --      2.1159                 1.2052                 2.1156
 IR Inten    --      1.2103                20.5254                68.5505

                     49                     50                     51
                      A                      A                      A
 Frequencies --   1323.4533              1330.0699              1357.7325
 Red. masses --      4.4309                 1.6036                 3.3699
 Frc consts  --      4.5726                 1.6715                 3.6602
 IR Inten    --     13.1658                 2.8540               140.7912

                     52                     53                     54
                      A                      A                      A
 Frequencies --   1362.1057              1387.7214              1427.7271
 Red. masses --      2.7850                 1.7970                 2.1071
 Frc consts  --      3.0443                 2.0390                 2.5306
 IR Inten    --     14.7645                21.7822                33.4223

                     55                     56                     57
                      A                      A                      A
 Frequencies --   1445.7346              1457.5136              1488.6360
 Red. masses --      2.5668                 1.7248                 1.2436
 Frc consts  --      3.1610                 2.1589                 1.6238
 IR Inten    --     33.8215                 2.9400                 9.7253

                     58                     59                     60
                      A                      A                      A
 Frequencies --   1499.9592              1503.8841              1509.4219
 Red. masses --      1.3751                 1.6691                 1.4370
 Frc consts  --      1.8228                 2.2242                 1.9290
 IR Inten    --      0.4296                91.2625                20.6883

                     61                     62                     63
                      A                      A                      A
 Frequencies --   1520.8247              1550.9666              1585.7594
 Red. masses --      1.3421                 2.7717                 5.4690
 Frc consts  --      1.8289                 3.9282                 8.1028
 IR Inten    --     23.1107               205.1014                 4.0611

                     64                     65                     66
                      A                      A                      A
 Frequencies --   1598.9744              1653.5210              2335.5078
 Red. masses --      4.5363                 5.8344                12.6747
 Frc consts  --      6.8334                 9.3986                40.7334
 IR Inten    --      6.0608               283.5564                94.2339

                     67                     68                     69
                      A                      A                      A
 Frequencies --   2996.4684              3034.7680              3039.7432
 Red. masses --      1.0626                 1.0952                 1.0445
 Frc consts  --      5.6211                 5.9429                 5.6863
 IR Inten    --     34.7212                 6.8448                44.2513

                     70                     71                     72
                      A                      A                      A
 Frequencies --   3114.6959              3166.8370              3170.0453
 Red. masses --      1.0957                 1.1022                 1.0881
 Frc consts  --      6.2628                 6.5127                 6.4427
 IR Inten    --      8.6801                 1.5425                 9.9364

                     73                     74                     75
                      A                      A                      A
 Frequencies --   3195.3523              3203.1404              3213.8352
 Red. masses --      1.0877                 1.0935                 1.0933
 Frc consts  --      6.5433                 6.6103                 6.6530
 IR Inten    --      5.8882                 4.5691                 7.6922

                     76                     77                     78
                      A                      A                      A
 Frequencies --   3245.1565              3265.4032              3605.4684
 Red. masses --      1.0916                 1.1021                 1.0760
 Frc consts  --      6.7734                 6.9240                 8.2412
 IR Inten    --      5.8577                 2.2479                37.6766

 - Thermochemistry -
 -------------------
 Temperature   298.150 Kelvin.  Pressure   1.00000 Atm.
 Atom     1 has atomic number  6 and mass  12.00000

 Molecular mass:   212.10620 amu.
 Principal axes and moments of inertia in atomic units:
                           1         2         3
     Eigenvalues --   861.798529629.173909708.03319
           X            1.00000  -0.00106   0.00147
           Y            0.00108   0.99993  -0.01214
           Z           -0.00145   0.01215   0.99993
 This molecule is an asymmetric top.
 Rotational symmetry number  1.
 Warning -- assumption of classical behavior for rotation
           may cause significant error
 Rotational temperatures (Kelvin)      0.10050     0.00899     0.00892
 Rotational constants (GHZ):           2.09416     0.18742     0.18590
 Zero-point vibrational energy     587676.9 (Joules/Mol)
                                  140.45816 (Kcal/Mol)
 Warning -- explicit consideration of  20 degrees of freedom as
           vibrations may cause significant error
 Vibrational temperatures:     37.19    59.31    87.79   121.66   144.75
          (Kelvin)            185.73   209.58   265.46   288.97   382.67
                              397.07   420.70   588.07   596.62   624.71
                              662.21   710.42   756.96   817.06   827.52
                              947.43   956.76   966.32  1003.24  1060.72
                             1073.96  1130.97  1157.37  1191.89  1218.24
                             1263.37  1279.60  1355.30  1358.76  1391.59
                             1428.58  1470.42  1492.24  1537.30  1576.20
                             1651.95  1656.62  1708.40  1727.29  1774.63
                             1778.94  1801.95  1848.08  1904.15  1913.67
                             1953.47  1959.77  1996.62  2054.18  2080.09
                             2097.04  2141.82  2158.11  2163.75  2171.72
                             2188.13  2231.49  2281.55  2300.57  2379.05
                             3360.27  4311.25  4366.35  4373.51  4481.35
                             4556.37  4560.99  4597.40  4608.60  4623.99
                             4669.06  4698.19  5187.46

 Zero-point correction=                           0.223834 (Hartree/Particle)
 Thermal correction to Energy=                    0.238078
 Thermal correction to Enthalpy=                  0.239022
 Thermal correction to Gibbs Free Energy=         0.180861
 Sum of electronic and zero-point Energies=           -683.296663
 Sum of electronic and thermal Energies=              -683.282420
 Sum of electronic and thermal Enthalpies=            -683.281476
 Sum of electronic and thermal Free Energies=         -683.339637

                     E (Thermal)             CV                S
                      KCal/Mol        Cal/Mol-Kelvin    Cal/Mol-Kelvin
 Total                  149.396             53.369            122.411
 Electronic               0.000              0.000              0.000
 Translational            0.889              2.981             41.959
 Rotational               0.889              2.981             32.755
 Vibrational            147.619             47.408             47.697
 Vibration     1          0.593              1.985              6.125
 Vibration     2          0.594              1.981              5.199
 Vibration     3          0.597              1.973              4.424
 Vibration     4          0.601              1.960              3.782
 Vibration     5          0.604              1.949              3.443
 Vibration     6          0.612              1.924              2.960
 Vibration     7          0.617              1.907              2.728
 Vibration     8          0.631              1.861              2.282
 Vibration     9          0.638              1.839              2.125
 Vibration    10          0.672              1.735              1.622
 Vibration    11          0.678              1.718              1.558
 Vibration    12          0.688              1.688              1.460
 Vibration    13          0.773              1.451              0.931
 Vibration    14          0.778              1.438              0.910
 Vibration    15          0.795              1.396              0.845
 Vibration    16          0.818              1.338              0.765
 Vibration    17          0.849              1.264              0.674
 Vibration    18          0.881              1.192              0.596
 Vibration    19          0.924              1.101              0.508
 Vibration    20          0.932              1.085              0.494

 Optimization completed.
    -- Stationary point found.
 Normal termination of Gaussian 16 at Tue May 16 02:13:08 2023.
