 Gaussian 16, Revision A.03,
 Gaussian 16:  ES64L-G16RevA.03 25-Dec-2016

 -----------------------------
 # opt freq b3lyp/6-31g(2df,p)
 -----------------------------

 -------------------
 Title Card Required
 -------------------
 Symbolic Z-matrix:
 Charge =  0 Multiplicity = 1

 SCF Done:  E(RB3LYP) =  -739.148913604     A.U. after   13 cycles
 SCF Done:  E(RB3LYP) =  -739.156801663     A.U. after   12 cycles
 SCF Done:  E(RB3LYP) =  -739.157911729     A.U. after   11 cycles
 SCF Done:  E(RB3LYP) =  -739.158130102     A.U. after   10 cycles
 SCF Done:  E(RB3LYP) =  -739.158257279     A.U. after   10 cycles
 SCF Done:  E(RB3LYP) =  -739.158299462     A.U. after   10 cycles
 SCF Done:  E(RB3LYP) =  -739.158314243     A.U. after    8 cycles
 SCF Done:  E(RB3LYP) =  -739.158315794     A.U. after    8 cycles
 SCF Done:  E(RB3LYP) =  -739.158316323     A.U. after    7 cycles
 Optimization completed.
    -- Stationary point found.
 Normal termination of Gaussian 16 at Mon May 15 20:40:24 2023.

 ----------------------------------------------------------------------
 #N Geom=AllCheck Guess=TCheck SCRF=Check GenChk RB3LYP/6-31G(2df,p) Fr
 eq
 ----------------------------------------------------------------------

 Structure from the checkpoint file:  "CNqCrSqNrqdOrdO.chk"
 -------------------
 Title Card Required
 -------------------
 Charge =  0 Multiplicity = 1

                         Standard orientation:
 ---------------------------------------------------------------------
 Center     Atomic      Atomic             Coordinates (Angstroms)
 Number     Number       Type             X           Y           Z
 ---------------------------------------------------------------------
      1          6           0       -1.670259   -1.230098    0.057892
      2          7           0       -0.982767   -0.000008   -0.324511
      3          6           0       -1.670254    1.230092    0.057870
      4         16           0        0.677434   -0.000009   -0.165279
      5          7           0        1.081882    0.000030    1.453178
      6          8           0        1.129214   -1.265114   -0.667921
      7          8           0        1.129181    1.265109   -0.667942
      8          1           0       -2.666185   -1.225158   -0.394333
      9          1           0       -1.793472   -1.326239    1.149594
     10          1           0       -1.116387   -2.087905   -0.321165
     11          1           0       -2.666175    1.225163   -0.394367
     12          1           0       -1.116365    2.087888   -0.321189
     13          1           0       -1.793479    1.326247    1.149570
     14          1           0        0.797614   -0.845001    1.934022
     15          1           0        0.797603    0.845075    1.933991
 ---------------------------------------------------------------------

 SCF Done:  E(RB3LYP) =  -739.158316323     A.U. after    1 cycles

 The electronic state is 1-A.
 Alpha  occ. eigenvalues --  -89.10007 -19.12965 -19.12964 -14.36537 -14.36203
 Alpha  occ. eigenvalues --  -10.22737 -10.22736  -8.12168  -6.08749  -6.08639
 Alpha  occ. eigenvalues --   -6.08525  -1.12459  -1.00951  -0.94167  -0.90627
 Alpha  occ. eigenvalues --   -0.73286  -0.70112  -0.60267  -0.54555  -0.53636
 Alpha  occ. eigenvalues --   -0.49600  -0.48277  -0.47058  -0.43237  -0.41929
 Alpha  occ. eigenvalues --   -0.41496  -0.39251  -0.34887  -0.32455  -0.31948
 Alpha  occ. eigenvalues --   -0.31657  -0.30572  -0.25459
 Alpha virt. eigenvalues --    0.04257   0.09041   0.10155   0.10245   0.10782
 Alpha virt. eigenvalues --    0.11364   0.12895   0.14843   0.15853   0.16438
 Alpha virt. eigenvalues --    0.17674   0.19900   0.20397   0.21646   0.27845

 Mulliken charges:
               1
     1  C   -0.349972
     2  N   -0.054060
     3  C   -0.349972
     4  S    0.526710
     5  N   -0.497527
     6  O   -0.311596
     7  O   -0.311609
     8  H    0.136076
     9  H    0.101725
    10  H    0.170942
    11  H    0.136076
    12  H    0.170944
    13  H    0.101725
    14  H    0.265268
    15  H    0.265271
 Sum of Mulliken charges =  -0.00000

 Dipole moment (field-independent basis, Debye):
    X=             -3.9814    Y=             -0.0000    Z=              3.6365  Tot=              5.3922
 Quadrupole moment (field-independent basis, Debye-Ang):
   XX=            -50.3748   YY=            -49.4278   ZZ=            -46.1032
   XY=             -0.0000   XZ=              2.3671   YZ=              0.0001

  Exact polarizability:  63.522  -0.000  60.182   0.459   0.000  53.820
 Approx polarizability:  87.184  -0.000  94.477  -0.330  -0.000  81.857

                      1                      2                      3
                      A                      A                      A
 Frequencies --     83.4198               155.3345               205.1964
 Red. masses --      3.0798                 2.2056                 1.0776
 Frc consts  --      0.0126                 0.0314                 0.0267
 IR Inten    --      1.4567                 0.5128                 0.2296

                      4                      5                      6
                      A                      A                      A
 Frequencies --    221.6061               256.5011               291.8721
 Red. masses --      1.2409                 1.6793                 2.2455
 Frc consts  --      0.0359                 0.0651                 0.1127
 IR Inten    --      0.2362                13.9824                 1.3523

                      7                      8                      9
                      A                      A                      A
 Frequencies --    351.2996               371.0017               429.6044
 Red. masses --      2.8120                 3.2861                 2.7863
 Frc consts  --      0.2045                 0.2665                 0.3030
 IR Inten    --     16.1124                20.3041                11.4178

                     10                     11                     12
                      A                      A                      A
 Frequencies --    494.7409               506.3579               524.8449
 Red. masses --      4.2749                 4.1515                 9.2768
 Frc consts  --      0.6165                 0.6271                 1.5056
 IR Inten    --      0.7813                16.8103                17.7634

                     13                     14                     15
                      A                      A                      A
 Frequencies --    581.0267               707.8517               831.2597
 Red. masses --      1.9258                 5.7864                 3.9298
 Frc consts  --      0.3830                 1.7082                 1.5999
 IR Inten    --    187.4889               228.5617                56.8440

                     16                     17                     18
                      A                      A                      A
 Frequencies --    962.3126              1070.9626              1073.3943
 Red. masses --      2.9797                 1.4397                 1.2627
 Frc consts  --      1.6257                 0.9729                 0.8572
 IR Inten    --    108.0851                 7.8560                 0.1198

                     19                     20                     21
                      A                      A                      A
 Frequencies --   1125.3623              1174.4765              1182.1185
 Red. masses --      1.2265                 1.4465                 9.5541
 Frc consts  --      0.9152                 1.1756                 7.8661
 IR Inten    --      2.3015                15.4511               140.3053

                     22                     23                     24
                      A                      A                      A
 Frequencies --   1231.0966              1285.8541              1413.6516
 Red. masses --      4.6378                 2.0464                 2.6163
 Frc consts  --      4.1414                 1.9935                 3.0805
 IR Inten    --     26.7520                24.3734               138.4137

                     25                     26                     27
                      A                      A                      A
 Frequencies --   1448.0151              1461.2301              1489.2965
 Red. masses --      1.7375                 1.1610                 1.0574
 Frc consts  --      2.1464                 1.4606                 1.3818
 IR Inten    --     65.2503                 2.1354                 3.6147

                     28                     29                     30
                      A                      A                      A
 Frequencies --   1497.4877              1503.3487              1516.3240
 Red. masses --      1.0463                 1.0549                 1.0546
 Frc consts  --      1.3824                 1.4047                 1.4286
 IR Inten    --      4.3525                25.2729                 6.8329

                     31                     32                     33
                      A                      A                      A
 Frequencies --   1575.3931              2965.9834              2970.9225
 Red. masses --      1.1096                 1.0560                 1.0578
 Frc consts  --      1.6225                 5.4732                 5.5007
 IR Inten    --     32.1664                27.4323                93.7009

                     34                     35                     36
                      A                      A                      A
 Frequencies --   3083.4022              3084.1703              3162.1692
 Red. masses --      1.0821                 1.0797                 1.0972
 Frc consts  --      6.0615                 6.0510                 6.4638
 IR Inten    --      2.5282                41.7298                 2.0805

                     37                     38                     39
                      A                      A                      A
 Frequencies --   3162.5681              3527.3952              3645.2843
 Red. masses --      1.0984                 1.0449                 1.0995
 Frc consts  --      6.4730                 7.6600                 8.6080
 IR Inten    --      1.4496                17.0264                23.4609

 - Thermochemistry -
 -------------------
 Temperature   298.150 Kelvin.  Pressure   1.00000 Atm.
 Atom     1 has atomic number  6 and mass  12.00000

 Molecular mass:   124.03065 amu.
 Principal axes and moments of inertia in atomic units:
                           1         2         3
     Eigenvalues --   575.34959 832.184681001.84651
           X            0.99993   0.00000   0.01167
           Y           -0.00000   1.00000   0.00000
           Z           -0.01167  -0.00000   0.99993
 This molecule is an asymmetric top.
 Rotational symmetry number  1.
 Warning -- assumption of classical behavior for rotation
           may cause significant error
 Rotational temperatures (Kelvin)      0.15054     0.10408     0.08645
 Rotational constants (GHZ):           3.13677     2.16868     1.80141
 Zero-point vibrational energy     314762.2 (Joules/Mol)
                                   75.22998 (Kcal/Mol)
 Warning -- explicit consideration of  13 degrees of freedom as
           vibrations may cause significant error
 Vibrational temperatures:    120.02   223.49   295.23   318.84   369.05
          (Kelvin)            419.94   505.44   533.79   618.10   711.82
                              728.54   755.13   835.97  1018.44  1196.00
                             1384.55  1540.88  1544.38  1619.15  1689.81
                             1700.80  1771.27  1850.06  2033.93  2083.37
                             2102.38  2142.77  2154.55  2162.98  2181.65
                             2266.64  4267.39  4274.49  4436.33  4437.43
                             4549.66  4550.23  5075.13  5244.75

 Zero-point correction=                           0.119887 (Hartree/Particle)
 Thermal correction to Energy=                    0.128318
 Thermal correction to Enthalpy=                  0.129263
 Thermal correction to Gibbs Free Energy=         0.087379
 Sum of electronic and zero-point Energies=           -739.038430
 Sum of electronic and thermal Energies=              -739.029998
 Sum of electronic and thermal Enthalpies=            -739.029054
 Sum of electronic and thermal Free Energies=         -739.070938

                     E (Thermal)             CV                S
                      KCal/Mol        Cal/Mol-Kelvin    Cal/Mol-Kelvin
 Total                   80.521             30.291             88.152
 Electronic               0.000              0.000              0.000
 Translational            0.889              2.981             40.360
 Rotational               0.889              2.981             27.664
 Vibrational             78.744             24.330             20.129
 Vibration     1          0.600              1.961              3.809
 Vibration     2          0.620              1.897              2.606
 Vibration     3          0.640              1.832              2.086
 Vibration     4          0.648              1.808              1.946
 Vibration     5          0.666              1.752              1.685
 Vibration     6          0.687              1.689              1.463
 Vibration     7          0.728              1.573              1.160
 Vibration     8          0.743              1.532              1.076
 Vibration     9          0.791              1.406              0.860
 Vibration    10          0.850              1.262              0.671
 Vibration    11          0.862              1.236              0.642
 Vibration    12          0.880              1.195              0.599
 Vibration    13          0.938              1.072              0.483

                           ! Non-Optimized Parameters !
 Normal termination of Gaussian 16 at Mon May 15 20:55:43 2023.
