 Gaussian 16, Revision A.03,
 Gaussian 16:  ES64L-G16RevA.03 25-Dec-2016

 -----------------------------
 # opt freq b3lyp/6-31g(2df,p)
 -----------------------------

 -------------------
 Title Card Required
 -------------------
 Symbolic Z-matrix:
 Charge =  0 Multiplicity = 1

 SCF Done:  E(RB3LYP) =  -686.152006642     A.U. after   14 cycles
 SCF Done:  E(RB3LYP) =  -686.162994671     A.U. after   12 cycles
 SCF Done:  E(RB3LYP) =  -686.165578283     A.U. after   12 cycles
 SCF Done:  E(RB3LYP) =  -686.167085770     A.U. after   13 cycles
 SCF Done:  E(RB3LYP) =  -686.167848214     A.U. after   11 cycles
 SCF Done:  E(RB3LYP) =  -686.168337451     A.U. after   12 cycles
 SCF Done:  E(RB3LYP) =  -686.168376194     A.U. after    9 cycles
 SCF Done:  E(RB3LYP) =  -686.168390899     A.U. after    9 cycles
 SCF Done:  E(RB3LYP) =  -686.168394135     A.U. after    8 cycles
 SCF Done:  E(RB3LYP) =  -686.168394208     A.U. after    6 cycles
 Optimization completed.
    -- Stationary point found.
 Normal termination of Gaussian 16 at Mon May 15 22:38:47 2023.

 ----------------------------------------------------------------------
 #N Geom=AllCheck Guess=TCheck SCRF=Check GenChk RB3LYP/6-31G(2df,p) Fr
 eq
 ----------------------------------------------------------------------

 Structure from the checkpoint file:  "COc1cccc2nc3ccccc3nc12.chk"
 -------------------
 Title Card Required
 -------------------
 Charge =  0 Multiplicity = 1

                         Standard orientation:
 ---------------------------------------------------------------------
 Center     Atomic      Atomic             Coordinates (Angstroms)
 Number     Number       Type             X           Y           Z
 ---------------------------------------------------------------------
      1          6           0        3.796609   -2.064669    0.000409
      2          8           0        2.434617   -1.679683    0.000164
      3          6           0        2.148237   -0.362658   -0.000058
      4          6           0        3.071728    0.653887   -0.000207
      5          6           0        2.653354    2.014578   -0.000266
      6          6           0        1.334940    2.364153   -0.000143
      7          6           0        0.338544    1.345648   -0.000004
      8          7           0       -0.954852    1.690271    0.000176
      9          6           0       -1.856254    0.699690    0.000168
     10          6           0       -3.247373    1.011079    0.000411
     11          6           0       -4.176305    0.008437    0.000212
     12          6           0       -3.775616   -1.359086   -0.000230
     13          6           0       -2.451517   -1.698426   -0.000391
     14          6           0       -1.451683   -0.683346   -0.000141
     15          7           0       -0.157180   -1.030683   -0.000202
     16          6           0        0.737090   -0.043934   -0.000067
     17          1           0        3.801560   -3.155383    0.000765
     18          1           0        4.318052   -1.697914    0.893826
     19          1           0        4.318232   -1.698612   -0.893209
     20          1           0        4.131430    0.436143   -0.000214
     21          1           0        3.418457    2.784173   -0.000394
     22          1           0        1.005487    3.395941   -0.000117
     23          1           0       -3.527545    2.058404    0.000769
     24          1           0       -5.234493    0.248439    0.000400
     25          1           0       -4.536093   -2.132862   -0.000448
     26          1           0       -2.118337   -2.730096   -0.000664
 ---------------------------------------------------------------------

 SCF Done:  E(RB3LYP) =  -686.168394208     A.U. after    2 cycles

 The electronic state is 1-A.
 Alpha  occ. eigenvalues --  -19.17698 -14.33280 -14.33032 -10.25029 -10.24193
 Alpha  occ. eigenvalues --  -10.22603 -10.22461 -10.22327 -10.22256 -10.19641
 Alpha  occ. eigenvalues --  -10.19612 -10.19516 -10.18925 -10.18913 -10.18892
 Alpha  occ. eigenvalues --  -10.18038  -1.07503  -0.97247  -0.90394  -0.85724
 Alpha  occ. eigenvalues --   -0.82910  -0.76561  -0.75230  -0.73895  -0.70404
 Alpha  occ. eigenvalues --   -0.67167  -0.64259  -0.60170  -0.58730  -0.56153
 Alpha  occ. eigenvalues --   -0.54962  -0.51432  -0.49816  -0.48008  -0.47478
 Alpha  occ. eigenvalues --   -0.47176  -0.45853  -0.44072  -0.43268  -0.43096
 Alpha  occ. eigenvalues --   -0.41606  -0.39290  -0.38001  -0.37705  -0.36039
 Alpha  occ. eigenvalues --   -0.35728  -0.34962  -0.33323  -0.32971  -0.30836
 Alpha  occ. eigenvalues --   -0.29641  -0.24885  -0.24688  -0.23782  -0.20757
 Alpha virt. eigenvalues --   -0.08183  -0.02055   0.00787   0.03092   0.05693
 Alpha virt. eigenvalues --    0.09097   0.10081   0.10694   0.12880   0.14767
 Alpha virt. eigenvalues --    0.15116   0.15276   0.16206   0.17011   0.17741

 Mulliken charges:
               1
     1  C   -0.248656
     2  O   -0.238015
     3  C    0.323086
     4  C   -0.292310
     5  C   -0.092494
     6  C   -0.209387
     7  C    0.298130
     8  N   -0.420295
     9  C    0.280048
    10  C   -0.180937
    11  C   -0.108460
    12  C   -0.110292
    13  C   -0.184337
    14  C    0.282724
    15  N   -0.409903
    16  C    0.169144
    17  H    0.140998
    18  H    0.126904
    19  H    0.126900
    20  H    0.104318
    21  H    0.103792
    22  H    0.106603
    23  H    0.110604
    24  H    0.104984
    25  H    0.104633
    26  H    0.112219
 Sum of Mulliken charges =  -0.00000

 Dipole moment (field-independent basis, Debye):
    X=              1.4337    Y=             -0.6531    Z=              0.0003  Tot=              1.5755
 Quadrupole moment (field-independent basis, Debye-Ang):
   XX=            -66.7455   YY=            -88.0403   ZZ=            -92.9912
   XY=              0.3910   XZ=              0.0005   YZ=             -0.0001

  Exact polarizability: 277.719  17.336 170.232  -0.006   0.006  64.475
 Approx polarizability: 457.987  36.605 319.572  -0.016   0.017 109.714

                      1                      2                      3
                      A                      A                      A
 Frequencies --     68.5059                90.9446               119.1016
 Red. masses --      3.7435                 4.5401                 4.0025
 Frc consts  --      0.0104                 0.0221                 0.0335
 IR Inten    --      1.4605                 3.7492                 0.5332

                      4                      5                      6
                      A                      A                      A
 Frequencies --    156.9348               192.5929               258.2832
 Red. masses --      4.3681                 2.7439                 1.3875
 Frc consts  --      0.0634                 0.0600                 0.0545
 IR Inten    --      2.9006                 0.0013                 0.1314

                      7                      8                      9
                      A                      A                      A
 Frequencies --    273.7068               296.2243               313.8184
 Red. masses --      5.5836                 3.8582                 3.4143
 Frc consts  --      0.2465                 0.1995                 0.1981
 IR Inten    --      0.0826                 0.2570                 0.1450

                     10                     11                     12
                      A                      A                      A
 Frequencies --    341.8150               413.1141               432.5447
 Red. masses --      4.6463                 6.5095                 5.1163
 Frc consts  --      0.3198                 0.6545                 0.5640
 IR Inten    --      4.5491                 1.1100                 4.4741

                     13                     14                     15
                      A                      A                      A
 Frequencies --    500.6256               509.9173               510.6591
 Red. masses --      3.8299                 6.3390                 3.5182
 Frc consts  --      0.5655                 0.9711                 0.5405
 IR Inten    --      0.1739                 3.3344                 0.7091

                     16                     17                     18
                      A                      A                      A
 Frequencies --    532.9886               587.0073               587.7055
 Red. masses --      7.8781                 6.0123                 4.0174
 Frc consts  --      1.3186                 1.2206                 0.8176
 IR Inten    --      2.2513                10.0692                 0.9781

                     19                     20                     21
                      A                      A                      A
 Frequencies --    617.4665               643.4680               667.4981
 Red. masses --      8.1127                 4.5198                 5.5556
 Frc consts  --      1.8224                 1.1026                 1.4584
 IR Inten    --      7.0623                 0.5902                 4.2598

                     22                     23                     24
                      A                      A                      A
 Frequencies --    722.1683               770.8473               790.1818
 Red. masses --      7.3216                 1.5732                 1.3926
 Frc consts  --      2.2498                 0.5508                 0.5123
 IR Inten    --      7.9190                52.4450                30.8189

                     25                     26                     27
                      A                      A                      A
 Frequencies --    803.7977               806.1028               857.6353
 Red. masses --      5.9185                 2.1301                 2.8830
 Frc consts  --      2.2530                 0.8155                 1.2494
 IR Inten    --      2.9122                 8.9406                10.3323

                     28                     29                     30
                      A                      A                      A
 Frequencies --    865.8085               876.0252               906.5338
 Red. masses --      5.5981                 1.5818                 2.3890
 Frc consts  --      2.4725                 0.7152                 1.1567
 IR Inten    --      8.6728                 0.0337                 0.2582

                     31                     32                     33
                      A                      A                      A
 Frequencies --    926.2415               969.3865               970.3308
 Red. masses --      6.5953                 1.3057                 1.2673
 Frc consts  --      3.3338                 0.7229                 0.7030
 IR Inten    --      2.4552                 0.9382                 0.1392

                     34                     35                     36
                      A                      A                      A
 Frequencies --    995.9716              1008.8894              1021.6895
 Red. masses --      1.2794                 6.4532                 2.1780
 Frc consts  --      0.7477                 3.8700                 1.3395
 IR Inten    --      0.0003                 3.2518                 1.8115

                     37                     38                     39
                      A                      A                      A
 Frequencies --   1084.8257              1132.0540              1156.0580
 Red. masses --      1.9469                 2.7145                 1.3855
 Frc consts  --      1.3499                 2.0496                 1.0910
 IR Inten    --     12.2824                64.0605                28.5433

                     40                     41                     42
                      A                      A                      A
 Frequencies --   1160.2511              1176.8624              1188.9190
 Red. masses --      1.3915                 1.2802                 1.3125
 Frc consts  --      1.1037                 1.0447                 1.0931
 IR Inten    --     46.9416                 1.2305                10.1779

                     43                     44                     45
                      A                      A                      A
 Frequencies --   1213.8200              1246.2239              1262.3033
 Red. masses --      1.4055                 3.0808                 2.4647
 Frc consts  --      1.2201                 2.8191                 2.3139
 IR Inten    --      2.0939                43.1215                26.9076

                     46                     47                     48
                      A                      A                      A
 Frequencies --   1298.9814              1316.8139              1338.5640
 Red. masses --      2.2505                 2.7669                 4.0975
 Frc consts  --      2.2374                 2.8268                 4.3256
 IR Inten    --    101.8802                42.8874                49.6531

                     49                     50                     51
                      A                      A                      A
 Frequencies --   1372.6876              1412.3772              1427.7797
 Red. masses --      3.6106                 2.4713                 6.4597
 Frc consts  --      4.0084                 2.9045                 7.7586
 IR Inten    --     25.6114                 8.1041                42.4270

                     52                     53                     54
                      A                      A                      A
 Frequencies --   1452.2342              1477.7846              1490.5613
 Red. masses --      2.9472                 1.3278                 1.0465
 Frc consts  --      3.6621                 1.7085                 1.3700
 IR Inten    --      8.2069                16.0891                 6.0712

                     55                     56                     57
                      A                      A                      A
 Frequencies --   1502.7968              1508.7130              1515.6325
 Red. masses --      1.2535                 2.2365                 2.9262
 Frc consts  --      1.6680                 2.9994                 3.9605
 IR Inten    --     50.0607                 4.5171                31.1622

                     58                     59                     60
                      A                      A                      A
 Frequencies --   1560.5092              1570.0480              1595.0347
 Red. masses --      6.7426                 8.3059                 7.1561
 Frc consts  --      9.6741                12.0632                10.7268
 IR Inten    --     49.8030                15.6542                67.1138

                     61                     62                     63
                      A                      A                      A
 Frequencies --   1643.5246              1669.6436              3005.4854
 Red. masses --      5.3694                 6.3029                 1.0346
 Frc consts  --      8.5454                10.3524                 5.5061
 IR Inten    --     23.1867                19.6132                61.4004

                     64                     65                     66
                      A                      A                      A
 Frequencies --   3066.0632              3139.7308              3174.6300
 Red. masses --      1.1047                 1.0992                 1.0850
 Frc consts  --      6.1185                 6.3844                 6.4430
 IR Inten    --     34.5520                17.7473                 3.7212

                     67                     68                     69
                      A                      A                      A
 Frequencies --   3178.7559              3187.1225              3201.2731
 Red. masses --      1.0869                 1.0881                 1.0941
 Frc consts  --      6.4707                 6.5122                 6.6060
 IR Inten    --      9.6690                 6.8942                11.2160

                     70                     71                     72
                      A                      A                      A
 Frequencies --   3205.8841              3209.7390              3217.4800
 Red. masses --      1.0972                 1.0927                 1.0918
 Frc consts  --      6.6440                 6.6330                 6.6593
 IR Inten    --     19.5756                 8.9069                11.7142

 - Thermochemistry -
 -------------------
 Temperature   298.150 Kelvin.  Pressure   1.00000 Atm.
 Atom     1 has atomic number  6 and mass  12.00000

 Molecular mass:   210.07931 amu.
 Principal axes and moments of inertia in atomic units:
                           1         2         3
     Eigenvalues --  1533.348594849.420506371.27558
           X            0.99999  -0.00546   0.00000
           Y            0.00546   0.99999   0.00000
           Z           -0.00000  -0.00000   1.00000
 This molecule is an asymmetric top.
 Rotational symmetry number  1.
 Warning -- assumption of classical behavior for rotation
           may cause significant error
 Rotational temperatures (Kelvin)      0.05649     0.01786     0.01359
 Rotational constants (GHZ):           1.17699     0.37216     0.28326
 Zero-point vibrational energy     530948.8 (Joules/Mol)
                                  126.89980 (Kcal/Mol)
 Warning -- explicit consideration of  19 degrees of freedom as
           vibrations may cause significant error
 Vibrational temperatures:     98.56   130.85   171.36   225.79   277.10
          (Kelvin)            371.61   393.80   426.20   451.51   491.80
                              594.38   622.34   720.29   733.66   734.72
                              766.85   844.57   845.58   888.40   925.81
                              960.38  1039.04  1109.08  1136.90  1156.49
                             1159.80  1233.95  1245.71  1260.40  1304.30
                             1332.65  1394.73  1396.09  1432.98  1451.57
                             1469.98  1560.82  1628.77  1663.31  1669.34
                             1693.24  1710.59  1746.42  1793.04  1816.17
                             1868.94  1894.60  1925.90  1974.99  2032.10
                             2054.26  2089.44  2126.20  2144.59  2162.19
                             2170.70  2180.66  2245.22  2258.95  2294.90
                             2364.67  2402.24  4324.22  4411.38  4517.37
                             4567.58  4573.52  4585.56  4605.92  4612.55
                             4618.10  4629.24

 Zero-point correction=                           0.202228 (Hartree/Particle)
 Thermal correction to Energy=                    0.213989
 Thermal correction to Enthalpy=                  0.214934
 Thermal correction to Gibbs Free Energy=         0.164332
 Sum of electronic and zero-point Energies=           -685.966167
 Sum of electronic and thermal Energies=              -685.954405
 Sum of electronic and thermal Enthalpies=            -685.953461
 Sum of electronic and thermal Free Energies=         -686.004062

                     E (Thermal)             CV                S
                      KCal/Mol        Cal/Mol-Kelvin    Cal/Mol-Kelvin
 Total                  134.280             48.032            106.500
 Electronic               0.000              0.000              0.000
 Translational            0.889              2.981             41.931
 Rotational               0.889              2.981             32.227
 Vibrational            132.503             42.070             32.343
 Vibration     1          0.598              1.969              4.196
 Vibration     2          0.602              1.956              3.640
 Vibration     3          0.609              1.933              3.115
 Vibration     4          0.621              1.895              2.586
 Vibration     5          0.635              1.850              2.203
 Vibration     6          0.667              1.749              1.673
 Vibration     7          0.676              1.722              1.573
 Vibration     8          0.690              1.681              1.438
 Vibration     9          0.702              1.647              1.342
 Vibration    10          0.721              1.592              1.204
 Vibration    11          0.777              1.442              0.916
 Vibration    12          0.793              1.399              0.850
 Vibration    13          0.856              1.249              0.657
 Vibration    14          0.865              1.228              0.634
 Vibration    15          0.866              1.226              0.632
 Vibration    16          0.888              1.177              0.581
 Vibration    17          0.944              1.060              0.473
 Vibration    18          0.945              1.058              0.471
 Vibration    19          0.977              0.995              0.421

 Optimization completed.
    -- Stationary point found.
 Normal termination of Gaussian 16 at Tue May 16 00:30:41 2023.
