 Gaussian 16, Revision A.03,
 Gaussian 16:  ES64L-G16RevA.03 25-Dec-2016

 -----------------------------
 # opt freq b3lyp/6-31g(2df,p)
 -----------------------------

 -------------------
 Title Card Required
 -------------------
 Symbolic Z-matrix:
 Charge =  0 Multiplicity = 1

 SCF Done:  E(RB3LYP) =  -820.754551916     A.U. after   14 cycles
 SCF Done:  E(RB3LYP) =  -820.771663277     A.U. after   13 cycles
 SCF Done:  E(RB3LYP) =  -820.781650398     A.U. after   13 cycles
 SCF Done:  E(RB3LYP) =  -820.788385837     A.U. after   12 cycles
 SCF Done:  E(RB3LYP) =  -820.792428388     A.U. after   13 cycles
 SCF Done:  E(RB3LYP) =  -820.790773446     A.U. after   13 cycles
 SCF Done:  E(RB3LYP) =  -820.795096869     A.U. after   13 cycles
 SCF Done:  E(RB3LYP) =  -820.797381233     A.U. after   15 cycles
 SCF Done:  E(RB3LYP) =  -820.800134092     A.U. after   14 cycles
 SCF Done:  E(RB3LYP) =  -820.804507316     A.U. after   15 cycles
 SCF Done:  E(RB3LYP) =  -820.806467077     A.U. after    9 cycles
 SCF Done:  E(RB3LYP) =  -820.806469414     A.U. after    8 cycles
 SCF Done:  E(RB3LYP) =  -820.806470003     A.U. after    7 cycles
 SCF Done:  E(RB3LYP) =  -820.806470223     A.U. after    7 cycles
 SCF Done:  E(RB3LYP) =  -820.806470295     A.U. after    7 cycles
 SCF Done:  E(RB3LYP) =  -820.806470382     A.U. after    7 cycles
 SCF Done:  E(RB3LYP) =  -820.806470426     A.U. after    7 cycles
 SCF Done:  E(RB3LYP) =  -820.806470450     A.U. after    6 cycles
 SCF Done:  E(RB3LYP) =  -820.806470465     A.U. after    6 cycles
 Optimization completed.
    -- Stationary point found.
 Normal termination of Gaussian 16 at Mon May 15 18:41:52 2023.

 ----------------------------------------------------------------------
 #N Geom=AllCheck Guess=TCheck SCRF=Check GenChk RB3LYP/6-31G(2df,p) Fr
 eq
 ----------------------------------------------------------------------

 Structure from the checkpoint file:  "COc1ccc2cqc1CCdOrOCqdOrNqCrC2.chk"
 -------------------
 Title Card Required
 -------------------
 Charge =  0 Multiplicity = 1

                         Standard orientation:
 ---------------------------------------------------------------------
 Center     Atomic      Atomic             Coordinates (Angstroms)
 Number     Number       Type             X           Y           Z
 ---------------------------------------------------------------------
      1          6           0        4.092517   -1.589642    0.047511
      2          8           0        3.140608   -0.564552   -0.176180
      3          6           0        1.818678   -0.873939   -0.124492
      4          6           0        1.319166   -2.156930    0.107349
      5          6           0       -0.058429   -2.354690    0.144414
      6          6           0       -0.941381   -1.301719   -0.051726
      7          6           0       -0.415883   -0.031244   -0.273614
      8          6           0        0.954875    0.219363   -0.317535
      9          6           0        1.520690    1.595973   -0.555894
     10          6           0        2.345153    2.120669    0.613218
     11          8           0        3.295739    2.847026    0.499425
     12          8           0       -1.250707    1.042544   -0.479842
     13          6           0       -2.586604    1.017287   -0.139642
     14          8           0       -3.194486    2.056614   -0.155895
     15          7           0       -3.101664   -0.198649    0.208556
     16          6           0       -4.525622   -0.276100    0.494471
     17          6           0       -2.432608   -1.465074   -0.062635
     18          1           0        5.070254   -1.111836   -0.023788
     19          1           0        4.017835   -2.379021   -0.710577
     20          1           0        3.977292   -2.034519    1.043575
     21          1           0        1.985636   -2.994199    0.262037
     22          1           0       -0.447876   -3.351634    0.327479
     23          1           0        0.696286    2.301689   -0.705679
     24          1           0        2.155414    1.629192   -1.446264
     25          1           0        1.975588    1.801037    1.615015
     26          1           0       -4.898077    0.727595    0.688128
     27          1           0       -4.691034   -0.910530    1.371925
     28          1           0       -5.078575   -0.704770   -0.352531
     29          1           0       -2.782113   -1.877036   -1.025672
     30          1           0       -2.741541   -2.182218    0.707848
 ---------------------------------------------------------------------

 SCF Done:  E(RB3LYP) =  -820.806470465     A.U. after    1 cycles

 The electronic state is 1-A.
 Alpha  occ. eigenvalues --  -19.19691 -19.18580 -19.13042 -19.11022 -14.37272
 Alpha  occ. eigenvalues --  -10.32941 -10.26536 -10.25931 -10.25715 -10.24901
 Alpha  occ. eigenvalues --  -10.24508 -10.22291 -10.20550 -10.20429 -10.20324
 Alpha  occ. eigenvalues --  -10.19578 -10.19284  -1.11740  -1.08101  -1.03850
 Alpha  occ. eigenvalues --   -1.02613  -0.95335  -0.87261  -0.80693  -0.77701
 Alpha  occ. eigenvalues --   -0.74258  -0.72910  -0.70886  -0.68873  -0.64484
 Alpha  occ. eigenvalues --   -0.61740  -0.57401  -0.56965  -0.54269  -0.52697
 Alpha  occ. eigenvalues --   -0.51407  -0.50497  -0.48117  -0.47726  -0.47075
 Alpha  occ. eigenvalues --   -0.45519  -0.44462  -0.43951  -0.43387  -0.43167
 Alpha  occ. eigenvalues --   -0.42992  -0.42397  -0.41926  -0.40182  -0.39617
 Alpha  occ. eigenvalues --   -0.38399  -0.37629  -0.36271  -0.35346  -0.35243
 Alpha  occ. eigenvalues --   -0.33402  -0.31635  -0.28039  -0.25604  -0.25329
 Alpha  occ. eigenvalues --   -0.23684  -0.22832
 Alpha virt. eigenvalues --   -0.02196  -0.00883  -0.00016   0.04883   0.07759
 Alpha virt. eigenvalues --    0.08056   0.09352   0.11439   0.12273   0.12686
 Alpha virt. eigenvalues --    0.13616   0.14191   0.14278   0.14759   0.15449

 Mulliken charges:
               1
     1  C   -0.250902
     2  O   -0.265356
     3  C    0.350105
     4  C   -0.282446
     5  C   -0.230148
     6  C    0.176234
     7  C    0.267549
     8  C    0.011655
     9  C   -0.380861
    10  C    0.177537
    11  O   -0.247940
    12  O   -0.284165
    13  C    0.452913
    14  O   -0.381905
    15  N   -0.160105
    16  C   -0.334243
    17  C   -0.271889
    18  H    0.148165
    19  H    0.128849
    20  H    0.129387
    21  H    0.106862
    22  H    0.100850
    23  H    0.159570
    24  H    0.135918
    25  H    0.072828
    26  H    0.174319
    27  H    0.126148
    28  H    0.125172
    29  H    0.122298
    30  H    0.123601
 Sum of Mulliken charges =  -0.00000

 Dipole moment (field-independent basis, Debye):
    X=             -0.6773    Y=             -6.9495    Z=              0.4368  Tot=              6.9961
 Quadrupole moment (field-independent basis, Debye-Ang):
   XX=            -93.9342   YY=           -103.6133   ZZ=            -96.6150
   XY=             -2.6618   XZ=             -2.5837   YZ=             -1.1983

  Exact polarizability: 202.784   0.804 155.994  -1.688  -6.646  87.639
 Approx polarizability: 275.636   4.097 256.646  -3.061 -17.758 141.308

                      1                      2                      3
                      A                      A                      A
 Frequencies --     35.2143                41.8947                63.6388
 Red. masses --      4.6976                 3.8326                 7.7652
 Frc consts  --      0.0034                 0.0040                 0.0185
 IR Inten    --      0.1483                 0.1076                 3.9657

                      4                      5                      6
                      A                      A                      A
 Frequencies --     76.3047                87.4965               110.8258
 Red. masses --      3.3776                 3.0271                 2.8845
 Frc consts  --      0.0116                 0.0137                 0.0209
 IR Inten    --      4.5761                 2.3367                 0.8249

                      7                      8                      9
                      A                      A                      A
 Frequencies --    122.9335               158.1058               187.0511
 Red. masses --      1.4720                 3.1644                 3.9146
 Frc consts  --      0.0131                 0.0466                 0.0807
 IR Inten    --      0.2296                 0.5843                 3.0815

                     10                     11                     12
                      A                      A                      A
 Frequencies --    196.8601               206.2027               241.9500
 Red. masses --      2.8824                 3.0140                 1.1598
 Frc consts  --      0.0658                 0.0755                 0.0400
 IR Inten    --      5.2115                 1.6388                 0.0519

                     13                     14                     15
                      A                      A                      A
 Frequencies --    247.8254               317.7036               322.6838
 Red. masses --      3.4640                 3.6011                 3.4925
 Frc consts  --      0.1253                 0.2142                 0.2143
 IR Inten    --      1.1395                 3.8346                 1.0574

                     16                     17                     18
                      A                      A                      A
 Frequencies --    326.8772               370.5571               387.0701
 Red. masses --      4.3719                 5.1939                 5.2305
 Frc consts  --      0.2752                 0.4202                 0.4617
 IR Inten    --      0.7862                 1.1115                15.2896

                     19                     20                     21
                      A                      A                      A
 Frequencies --    416.6703               474.4483               522.1635
 Red. masses --      4.0498                 6.6562                 4.3371
 Frc consts  --      0.4143                 0.8828                 0.6967
 IR Inten    --      7.8444                 3.3900                 5.3236

                     22                     23                     24
                      A                      A                      A
 Frequencies --    545.6448               566.4609               627.3924
 Red. masses --      3.6849                 4.2550                 5.8203
 Frc consts  --      0.6464                 0.8044                 1.3498
 IR Inten    --     25.5695                 6.5141                 5.8172

                     25                     26                     27
                      A                      A                      A
 Frequencies --    643.8211               682.5604               713.1526
 Red. masses --      4.7217                 5.5158                 3.3659
 Frc consts  --      1.1531                 1.5141                 1.0086
 IR Inten    --      2.9838                 1.5476                 1.1588

                     28                     29                     30
                      A                      A                      A
 Frequencies --    737.4778               755.8415               760.2608
 Red. masses --      2.4960                 7.5119                 4.7711
 Frc consts  --      0.7998                 2.5285                 1.6248
 IR Inten    --      0.2482                18.7418                 5.2870

                     31                     32                     33
                      A                      A                      A
 Frequencies --    804.0915               811.3621               836.2040
 Red. masses --      2.5823                 2.3483                 5.2499
 Frc consts  --      0.9837                 0.9108                 2.1629
 IR Inten    --      3.9255                31.5901                 1.3752

                     34                     35                     36
                      A                      A                      A
 Frequencies --    909.0402               945.7847              1013.0651
 Red. masses --      1.2565                 3.4086                 2.0770
 Frc consts  --      0.6117                 1.7964                 1.2559
 IR Inten    --      0.9275                 0.9303                 0.8501

                     37                     38                     39
                      A                      A                      A
 Frequencies --   1039.2082              1040.9074              1045.6368
 Red. masses --      2.0710                 2.4150                 3.8689
 Frc consts  --      1.3177                 1.5417                 2.4923
 IR Inten    --     20.9691                 4.0772                36.5564

                     40                     41                     42
                      A                      A                      A
 Frequencies --   1057.1269              1134.8494              1143.1361
 Red. masses --      2.8522                 2.5254                 4.1447
 Frc consts  --      1.8780                 1.9163                 3.1911
 IR Inten    --      4.9681                48.0511               412.1169

                     43                     44                     45
                      A                      A                      A
 Frequencies --   1158.8632              1178.3267              1191.2655
 Red. masses --      1.3031                 1.2759                 1.5501
 Frc consts  --      1.0311                 1.0437                 1.2960
 IR Inten    --      2.3027                 1.2570                24.6630

                     46                     47                     48
                      A                      A                      A
 Frequencies --   1210.8356              1224.2809              1233.8075
 Red. masses --      1.3722                 1.7463                 1.6247
 Frc consts  --      1.1854                 1.5421                 1.4572
 IR Inten    --     25.4886               302.9949                 8.9628

                     49                     50                     51
                      A                      A                      A
 Frequencies --   1243.8299              1273.3411              1275.3657
 Red. masses --      2.5600                 2.1235                 1.4271
 Frc consts  --      2.3336                 2.0286                 1.3677
 IR Inten    --     17.1360                76.0504                72.0632

                     52                     53                     54
                      A                      A                      A
 Frequencies --   1295.8111              1319.2913              1330.6084
 Red. masses --      1.8543                 4.3260                 3.7143
 Frc consts  --      1.8345                 4.4363                 3.8746
 IR Inten    --     13.0658                24.8517                39.1034

                     55                     56                     57
                      A                      A                      A
 Frequencies --   1368.0287              1421.9607              1436.8568
 Red. masses --      5.2121                 1.1757                 1.3025
 Frc consts  --      5.7472                 1.4007                 1.5844
 IR Inten    --     21.2921                 5.5539                49.8327

                     58                     59                     60
                      A                      A                      A
 Frequencies --   1444.4236              1456.4542              1478.1776
 Red. masses --      1.1024                 1.5349                 1.2695
 Frc consts  --      1.3551                 1.9183                 1.6344
 IR Inten    --      7.6800               202.8371                 6.6512

                     61                     62                     63
                      A                      A                      A
 Frequencies --   1481.8525              1491.8289              1496.0359
 Red. masses --      4.2982                 1.0468                 1.0686
 Frc consts  --      5.5610                 1.3727                 1.4091
 IR Inten    --     87.0371                 6.1783                13.5056

                     64                     65                     66
                      A                      A                      A
 Frequencies --   1504.2546              1505.8761              1527.9443
 Red. masses --      1.0976                 1.0763                 1.9640
 Frc consts  --      1.4634                 1.4381                 2.7015
 IR Inten    --     63.7853                 5.1274                92.5728

                     67                     68                     69
                      A                      A                      A
 Frequencies --   1542.6971              1632.6960              1655.4289
 Red. masses --      1.4893                 7.9123                 7.6298
 Frc consts  --      2.0883                12.4269                12.3192
 IR Inten    --      8.9560                37.3225                76.4594

                     70                     71                     72
                      A                      A                      A
 Frequencies --   1835.3714              1839.4237              2863.6917
 Red. masses --     10.8026                11.0350                 1.0831
 Frc consts  --     21.4400                21.9981                 5.2331
 IR Inten    --    251.1532               464.3926                90.2903

                     73                     74                     75
                      A                      A                      A
 Frequencies --   2942.4190              3010.9435              3011.7081
 Red. masses --      1.0738                 1.0345                 1.0456
 Frc consts  --      5.4775                 5.5255                 5.5876
 IR Inten    --     54.2690                57.6545                47.6777

                     76                     77                     78
                      A                      A                      A
 Frequencies --   3033.4243              3053.7880              3072.6047
 Red. masses --      1.0859                 1.0579                 1.0964
 Frc consts  --      5.8871                 5.8126                 6.0986
 IR Inten    --     28.1218                11.3781                26.2346

                     79                     80                     81
                      A                      A                      A
 Frequencies --   3073.7339              3104.0571              3143.4281
 Red. masses --      1.1051                 1.1025                 1.0997
 Frc consts  --      6.1514                 6.2588                 6.4021
 IR Inten    --     32.1211                 3.3194                14.7361

                     82                     83                     84
                      A                      A                      A
 Frequencies --   3171.6628              3176.9745              3222.6663
 Red. masses --      1.0891                 1.0961                 1.0910
 Frc consts  --      6.4549                 6.5183                 6.6761
 IR Inten    --      8.5046                 0.9736                 5.8937

 - Thermochemistry -
 -------------------
 Temperature   298.150 Kelvin.  Pressure   1.00000 Atm.
 Atom     1 has atomic number  6 and mass  12.00000

 Molecular mass:   235.08446 amu.
 Principal axes and moments of inertia in atomic units:
                           1         2         3
     Eigenvalues --  2191.160245799.625237745.28281
           X            0.99999  -0.00351  -0.00379
           Y            0.00349   0.99997  -0.00645
           Z            0.00381   0.00644   0.99997
 This molecule is an asymmetric top.
 Rotational symmetry number  1.
 Warning -- assumption of classical behavior for rotation
           may cause significant error
 Rotational temperatures (Kelvin)      0.03953     0.01493     0.01118
 Rotational constants (GHZ):           0.82365     0.31118     0.23301
 Zero-point vibrational energy     620045.7 (Joules/Mol)
                                  148.19447 (Kcal/Mol)
 Warning -- explicit consideration of  23 degrees of freedom as
           vibrations may cause significant error
 Vibrational temperatures:     50.67    60.28    91.56   109.79   125.89
          (Kelvin)            159.45   176.87   227.48   269.12   283.24
                              296.68   348.11   356.57   457.10   464.27
                              470.30   533.15   556.91   599.50   682.63
                              751.28   785.06   815.01   902.68   926.31
                              982.05  1026.07  1061.07  1087.49  1093.85
                             1156.91  1167.37  1203.11  1307.91  1360.77
                             1457.57  1495.19  1497.63  1504.44  1520.97
                             1632.80  1644.72  1667.35  1695.35  1713.97
                             1742.12  1761.47  1775.17  1789.59  1832.05
                             1834.97  1864.38  1898.17  1914.45  1968.29
                             2045.88  2067.32  2078.20  2095.51  2126.77
                             2132.06  2146.41  2152.46  2164.29  2166.62
                             2198.37  2219.60  2349.09  2381.79  2640.69
                             2646.52  4120.21  4233.48  4332.08  4333.18
                             4364.42  4393.72  4420.79  4422.42  4466.05
                             4522.69  4563.32  4570.96  4636.70

 Zero-point correction=                           0.236163 (Hartree/Particle)
 Thermal correction to Energy=                    0.252301
 Thermal correction to Enthalpy=                  0.253246
 Thermal correction to Gibbs Free Energy=         0.191364
 Sum of electronic and zero-point Energies=           -820.570308
 Sum of electronic and thermal Energies=              -820.554169
 Sum of electronic and thermal Enthalpies=            -820.553225
 Sum of electronic and thermal Free Energies=         -820.615107

                     E (Thermal)             CV                S
                      KCal/Mol        Cal/Mol-Kelvin    Cal/Mol-Kelvin
 Total                  158.321             58.912            130.241
 Electronic               0.000              0.000              0.000
 Translational            0.889              2.981             42.266
 Rotational               0.889              2.981             32.954
 Vibrational            156.544             52.950             55.022
 Vibration     1          0.594              1.982              5.512
 Vibration     2          0.595              1.980              5.167
 Vibration     3          0.597              1.972              4.341
 Vibration     4          0.599              1.965              3.984
 Vibration     5          0.601              1.958              3.715
 Vibration     6          0.607              1.941              3.254
 Vibration     7          0.610              1.930              3.054
 Vibration     8          0.621              1.894              2.572
 Vibration     9          0.632              1.858              2.257
 Vibration    10          0.636              1.844              2.162
 Vibration    11          0.641              1.831              2.077
 Vibration    12          0.658              1.776              1.788
 Vibration    13          0.661              1.766              1.746
 Vibration    14          0.704              1.640              1.322
 Vibration    15          0.708              1.630              1.296
 Vibration    16          0.711              1.622              1.275
 Vibration    17          0.743              1.533              1.077
 Vibration    18          0.755              1.498              1.011
 Vibration    19          0.780              1.434              0.903
 Vibration    20          0.831              1.307              0.725
 Vibration    21          0.877              1.201              0.605
 Vibration    22          0.901              1.149              0.553
 Vibration    23          0.922              1.104              0.511

                           ! Non-Optimized Parameters !
 Normal termination of Gaussian 16 at Mon May 15 21:33:49 2023.
