 Gaussian 16, Revision A.03,
 Gaussian 16:  ES64L-G16RevA.03 25-Dec-2016

 -----------------------------
 # opt freq b3lyp/6-31g(2df,p)
 -----------------------------

 -------------------
 Title Card Required
 -------------------
 Symbolic Z-matrix:
 Charge =  0 Multiplicity = 1

 SCF Done:  E(RB3LYP) =  -689.216102952     A.U. after   14 cycles
 SCF Done:  E(RB3LYP) =  -689.223180858     A.U. after   12 cycles
 SCF Done:  E(RB3LYP) =  -689.225407347     A.U. after   13 cycles
 SCF Done:  E(RB3LYP) =  -689.226381645     A.U. after   13 cycles
 SCF Done:  E(RB3LYP) =  -689.226371103     A.U. after   13 cycles
 SCF Done:  E(RB3LYP) =  -689.226505384     A.U. after   12 cycles
 SCF Done:  E(RB3LYP) =  -689.226623903     A.U. after   11 cycles
 SCF Done:  E(RB3LYP) =  -689.226627008     A.U. after    8 cycles
 SCF Done:  E(RB3LYP) =  -689.226628505     A.U. after    7 cycles
 SCF Done:  E(RB3LYP) =  -689.226629021     A.U. after    7 cycles
 SCF Done:  E(RB3LYP) =  -689.226629075     A.U. after    6 cycles
 SCF Done:  E(RB3LYP) =  -689.226629092     A.U. after    5 cycles
 SCF Done:  E(RB3LYP) =  -689.226629103     A.U. after    5 cycles
 Optimization completed.
    -- Stationary point found.
 Normal termination of Gaussian 16 at Mon May 15 21:02:36 2023.

 ----------------------------------------------------------------------
 #N Geom=AllCheck Guess=TCheck SCRF=Check GenChk RB3LYP/6-31G(2df,p) Fr
 eq
 ----------------------------------------------------------------------

 Structure from the checkpoint file:  "COCqdOrc1ccqOCrccqOCrc1.chk"
 -------------------
 Title Card Required
 -------------------
 Charge =  0 Multiplicity = 1

                         Standard orientation:
 ---------------------------------------------------------------------
 Center     Atomic      Atomic             Coordinates (Angstroms)
 Number     Number       Type             X           Y           Z
 ---------------------------------------------------------------------
      1          6           0       -4.363685   -0.259632   -0.000113
      2          8           0       -2.987602    0.131824    0.000009
      3          6           0       -2.101413   -0.888766    0.000024
      4          8           0       -2.438611   -2.049008    0.000041
      5          6           0       -0.688202   -0.412336    0.000013
      6          6           0        0.307050   -1.379184    0.000064
      7          6           0        1.650530   -0.985933    0.000085
      8          8           0        2.560651   -1.994298    0.000131
      9          6           0        3.935243   -1.658413   -0.000256
     10          6           0        1.979842    0.365824    0.000103
     11          6           0        0.963893    1.332989    0.000057
     12          8           0        1.402179    2.620937    0.000120
     13          6           0        0.435558    3.654973   -0.000092
     14          6           0       -0.374820    0.955727   -0.000002
     15          1           0       -4.936673    0.667900   -0.001179
     16          1           0       -4.596769   -0.852843    0.887901
     17          1           0       -4.596133   -0.854587   -0.887109
     18          1           0        0.047358   -2.429352    0.000086
     19          1           0        4.478108   -2.604828   -0.000599
     20          1           0        4.211850   -1.083723    0.893018
     21          1           0        4.211255   -1.083404   -0.893500
     22          1           0        3.004021    0.712838    0.000257
     23          1           0        0.994762    4.591971   -0.000040
     24          1           0       -0.201074    3.613660    0.892780
     25          1           0       -0.200766    3.613567   -0.893180
     26          1           0       -1.172850    1.681661   -0.000149
 ---------------------------------------------------------------------

 SCF Done:  E(RB3LYP) =  -689.226629103     A.U. after    1 cycles

 The electronic state is 1-A.
 Alpha  occ. eigenvalues --  -19.17940 -19.17248 -19.17140 -19.11779 -10.29933
 Alpha  occ. eigenvalues --  -10.24607 -10.24515 -10.23958 -10.23873 -10.23477
 Alpha  occ. eigenvalues --  -10.19830 -10.18344 -10.18043 -10.17727  -1.09691
 Alpha  occ. eigenvalues --   -1.06830  -1.06640  -1.00658  -0.85432  -0.77304
 Alpha  occ. eigenvalues --   -0.76048  -0.72042  -0.70213  -0.69510  -0.62728
 Alpha  occ. eigenvalues --   -0.59044  -0.56258  -0.54266  -0.50544  -0.49076
 Alpha  occ. eigenvalues --   -0.48568  -0.48409  -0.47746  -0.47151  -0.46683
 Alpha  occ. eigenvalues --   -0.45474  -0.43813  -0.41900  -0.40496  -0.40047
 Alpha  occ. eigenvalues --   -0.37841  -0.37766  -0.37661  -0.35103  -0.34556
 Alpha  occ. eigenvalues --   -0.33685  -0.33375  -0.30040  -0.29691  -0.26744
 Alpha  occ. eigenvalues --   -0.23571  -0.21489
 Alpha virt. eigenvalues --   -0.03655   0.01800   0.07200   0.09393   0.10275
 Alpha virt. eigenvalues --    0.10874   0.11675   0.12208   0.13339   0.14751
 Alpha virt. eigenvalues --    0.15422   0.15813   0.16287   0.16348   0.16732

 Mulliken charges:
               1
     1  C   -0.242077
     2  O   -0.245127
     3  C    0.449904
     4  O   -0.376782
     5  C    0.125612
     6  C   -0.310038
     7  C    0.438759
     8  O   -0.267040
     9  C   -0.243501
    10  C   -0.382938
    11  C    0.432303
    12  O   -0.269357
    13  C   -0.243161
    14  C   -0.408341
    15  H    0.129203
    16  H    0.141221
    17  H    0.141268
    18  H    0.128298
    19  H    0.136874
    20  H    0.126484
    21  H    0.126491
    22  H    0.107695
    23  H    0.134273
    24  H    0.127610
    25  H    0.127607
    26  H    0.114760
 Sum of Mulliken charges =  -0.00000

 Dipole moment (field-independent basis, Debye):
    X=              0.7086    Y=              2.9619    Z=             -0.0008  Tot=              3.0455
 Quadrupole moment (field-independent basis, Debye-Ang):
   XX=            -64.3174   YY=            -80.1086   ZZ=            -81.3044
   XY=             -8.1059   XZ=             -0.0004   YZ=              0.0003

  Exact polarizability: 166.730  -5.488 143.738  -0.000  -0.001  67.057
 Approx polarizability: 227.979  -1.478 233.770   0.002  -0.002 105.476

                      1                      2                      3
                      A                      A                      A
 Frequencies --     43.7821                73.4003                92.4358
 Red. masses --      4.9503                 3.2028                 3.2483
 Frc consts  --      0.0056                 0.0102                 0.0164
 IR Inten    --      2.3695                 3.9442                 0.5489

                      4                      5                      6
                      A                      A                      A
 Frequencies --    111.1769               115.4785               129.9893
 Red. masses --      2.3519                 4.1075                 1.3403
 Frc consts  --      0.0171                 0.0323                 0.0133
 IR Inten    --      0.0440                 0.2744                 0.2273

                      7                      8                      9
                      A                      A                      A
 Frequencies --    181.7307               192.5679               210.5230
 Red. masses --      3.5433                 2.7912                 1.6101
 Frc consts  --      0.0689                 0.0610                 0.0420
 IR Inten    --      2.4587                 3.9722                 0.4843

                     10                     11                     12
                      A                      A                      A
 Frequencies --    228.4040               262.6589               278.5184
 Red. masses --      2.0074                 3.7188                 1.9041
 Frc consts  --      0.0617                 0.1512                 0.0870
 IR Inten    --      1.5910                 2.7355                 0.4956

                     13                     14                     15
                      A                      A                      A
 Frequencies --    281.6779               307.1698               341.0093
 Red. masses --      1.8535                 5.0311                 3.9984
 Frc consts  --      0.0866                 0.2797                 0.2740
 IR Inten    --      0.4071                 5.1592                11.3833

                     16                     17                     18
                      A                      A                      A
 Frequencies --    420.3633               442.3188               527.6882
 Red. masses --      7.5727                 4.9097                 5.4303
 Frc consts  --      0.7884                 0.5659                 0.8909
 IR Inten    --      1.8981                 8.6622                 0.1979

                     19                     20                     21
                      A                      A                      A
 Frequencies --    537.4106               553.9972               634.7468
 Red. masses --      5.9680                 5.7849                 4.4020
 Frc consts  --      1.0155                 1.0461                 1.0450
 IR Inten    --      1.9968                 7.0402                 0.0402

                     22                     23                     24
                      A                      A                      A
 Frequencies --    635.9621               697.6987               770.7671
 Red. masses --      4.0363                 2.2571                 5.9159
 Frc consts  --      0.9618                 0.6473                 2.0707
 IR Inten    --      2.5094                 1.5568                17.6056

                     25                     26                     27
                      A                      A                      A
 Frequencies --    785.4524               852.5126               872.5383
 Red. masses --      3.6121                 1.5669                 1.6517
 Frc consts  --      1.3130                 0.6709                 0.7409
 IR Inten    --     30.3952                 0.0690                24.8554

                     28                     29                     30
                      A                      A                      A
 Frequencies --    905.2897               914.0881               956.4677
 Red. masses --      5.8732                 1.5829                 5.4528
 Frc consts  --      2.8360                 0.7793                 2.9391
 IR Inten    --     12.3101                12.6300                11.0042

                     31                     32                     33
                      A                      A                      A
 Frequencies --   1004.5120              1029.2653              1085.9100
 Red. masses --      6.0403                 6.3807                 3.1420
 Frc consts  --      3.5910                 3.9827                 2.1829
 IR Inten    --      2.2971                 8.2852               115.9207

                     34                     35                     36
                      A                      A                      A
 Frequencies --   1097.1985              1125.8795              1177.4037
 Red. masses --      2.4962                 1.9937                 1.2777
 Frc consts  --      1.7705                 1.4890                 1.0436
 IR Inten    --     42.2596                69.2958                 0.5722

                     37                     38                     39
                      A                      A                      A
 Frequencies --   1178.1357              1179.6901              1191.5109
 Red. masses --      1.2773                 1.2816                 1.7443
 Frc consts  --      1.0445                 1.0509                 1.4591
 IR Inten    --      1.4348                 1.1179               149.5114

                     40                     41                     42
                      A                      A                      A
 Frequencies --   1211.0978              1214.1240              1238.6877
 Red. masses --      1.4430                 1.4875                 2.0832
 Frc consts  --      1.2470                 1.2920                 1.8833
 IR Inten    --      0.0598                39.2844               241.5579

                     43                     44                     45
                      A                      A                      A
 Frequencies --   1263.5830              1277.8746              1336.1028
 Red. masses --      4.4892                 1.3880                 5.9025
 Frc consts  --      4.2231                 1.3355                 6.2082
 IR Inten    --    310.9191                21.0444               239.6651

                     46                     47                     48
                      A                      A                      A
 Frequencies --   1389.2855              1461.3081              1470.1281
 Red. masses --      5.8433                 1.6040                 1.2723
 Frc consts  --      6.6449                 2.0181                 1.6201
 IR Inten    --    158.5643                90.9396                15.6563

                     49                     50                     51
                      A                      A                      A
 Frequencies --   1480.4357              1480.6171              1490.1771
 Red. masses --      1.0517                 1.5739                 1.0466
 Frc consts  --      1.3581                 2.0328                 1.3694
 IR Inten    --      6.3168                42.1133                 5.0418

                     52                     53                     54
                      A                      A                      A
 Frequencies --   1490.8698              1496.8918              1498.3481
 Red. masses --      1.0467                 1.5324                 1.1018
 Frc consts  --      1.3707                 2.0231                 1.4574
 IR Inten    --      6.2002                64.5831                12.1188

                     55                     56                     57
                      A                      A                      A
 Frequencies --   1499.1787              1508.8866              1511.6484
 Red. masses --      1.6203                 1.1603                 1.3452
 Frc consts  --      2.1456                 1.5565                 1.8111
 IR Inten    --     31.7844                13.6960                 2.7497

                     58                     59                     60
                      A                      A                      A
 Frequencies --   1630.8122              1643.3893              1797.1992
 Red. masses --      6.1327                 6.7102                11.8989
 Frc consts  --      9.6097                10.6775                22.6437
 IR Inten    --    159.5340               133.4432               206.4927

                     61                     62                     63
                      A                      A                      A
 Frequencies --   3005.1122              3007.2015              3049.9383
 Red. masses --      1.0346                 1.0342                 1.0297
 Frc consts  --      5.5047                 5.5104                 5.6432
 IR Inten    --     48.9374                45.2984                38.3837

                     64                     65                     66
                      A                      A                      A
 Frequencies --   3065.0403              3067.6130              3123.7483
 Red. masses --      1.1047                 1.1048                 1.1054
 Frc consts  --      6.1148                 6.1254                 6.3549
 IR Inten    --     33.8872                36.5111                18.6989

                     67                     68                     69
                      A                      A                      A
 Frequencies --   3134.1898              3135.5645              3155.3331
 Red. masses --      1.0996                 1.0992                 1.1060
 Frc consts  --      6.3642                 6.3674                 6.4875
 IR Inten    --     24.0421                22.3605                15.9152

                     70                     71                     72
                      A                      A                      A
 Frequencies --   3224.0312              3227.7922              3252.2972
 Red. masses --      1.0895                 1.0905                 1.0893
 Frc consts  --      6.6723                 6.6939                 6.7887
 IR Inten    --      2.3691                 1.8051                 2.5532

 - Thermochemistry -
 -------------------
 Temperature   298.150 Kelvin.  Pressure   1.00000 Atm.
 Atom     1 has atomic number  6 and mass  12.00000

 Molecular mass:   196.07356 amu.
 Principal axes and moments of inertia in atomic units:
                           1         2         3
     Eigenvalues --  2097.043983867.445165930.18350
           X            0.99966  -0.02606  -0.00000
           Y            0.02606   0.99966   0.00000
           Z            0.00000  -0.00000   1.00000
 This molecule is an asymmetric top.
 Rotational symmetry number  1.
 Warning -- assumption of classical behavior for rotation
           may cause significant error
 Rotational temperatures (Kelvin)      0.04130     0.02240     0.01461
 Rotational constants (GHZ):           0.86061     0.46665     0.30433
 Zero-point vibrational energy     545890.9 (Joules/Mol)
                                  130.47106 (Kcal/Mol)
 Warning -- explicit consideration of  20 degrees of freedom as
           vibrations may cause significant error
 Vibrational temperatures:     62.99   105.61   132.99   159.96   166.15
          (Kelvin)            187.03   261.47   277.06   302.90   328.62
                              377.91   400.73   405.27   441.95   490.64
                              604.81   636.40   759.23   773.21   797.08
                              913.26   915.01  1003.83  1108.96  1130.09
                             1226.58  1255.39  1302.51  1315.17  1376.14
                             1445.27  1480.88  1562.38  1578.62  1619.89
                             1694.02  1695.07  1697.31  1714.32  1742.50
                             1746.85  1782.20  1818.01  1838.58  1922.35
                             1998.87  2102.50  2115.19  2130.02  2130.28
                             2144.03  2145.03  2153.69  2155.79  2156.98
                             2170.95  2174.92  2346.37  2364.47  2585.77
                             4323.69  4326.69  4388.18  4409.91  4413.61
                             4494.38  4509.40  4511.38  4539.82  4638.66
                             4644.07  4679.33

 Zero-point correction=                           0.207919 (Hartree/Particle)
 Thermal correction to Energy=                    0.221956
 Thermal correction to Enthalpy=                  0.222901
 Thermal correction to Gibbs Free Energy=         0.166649
 Sum of electronic and zero-point Energies=           -689.018710
 Sum of electronic and thermal Energies=              -689.004673
 Sum of electronic and thermal Enthalpies=            -689.003728
 Sum of electronic and thermal Free Energies=         -689.059980

                     E (Thermal)             CV                S
                      KCal/Mol        Cal/Mol-Kelvin    Cal/Mol-Kelvin
 Total                  139.280             50.875            118.392
 Electronic               0.000              0.000              0.000
 Translational            0.889              2.981             41.725
 Rotational               0.889              2.981             32.242
 Vibrational            137.502             44.913             44.425
 Vibration     1          0.595              1.980              5.080
 Vibration     2          0.599              1.967              4.060
 Vibration     3          0.602              1.955              3.608
 Vibration     4          0.607              1.940              3.248
 Vibration     5          0.608              1.937              3.175
 Vibration     6          0.612              1.923              2.946
 Vibration     7          0.630              1.865              2.311
 Vibration     8          0.635              1.850              2.203
 Vibration     9          0.643              1.825              2.039
 Vibration    10          0.651              1.798              1.891
 Vibration    11          0.670              1.741              1.644
 Vibration    12          0.679              1.713              1.543
 Vibration    13          0.681              1.708              1.523
 Vibration    14          0.697              1.660              1.378
 Vibration    15          0.721              1.594              1.207
 Vibration    16          0.783              1.426              0.891
 Vibration    17          0.802              1.378              0.819
 Vibration    18          0.883              1.189              0.592
 Vibration    19          0.892              1.167              0.571
 Vibration    20          0.909              1.131              0.536

                           ! Non-Optimized Parameters !
 Normal termination of Gaussian 16 at Mon May 15 22:17:30 2023.
