 Gaussian 16, Revision A.03,
 Gaussian 16:  ES64L-G16RevA.03 25-Dec-2016

 -----------------------------
 # opt freq b3lyp/6-31g(2df,p)
 -----------------------------

 -------------------
 Title Card Required
 -------------------
 Symbolic Z-matrix:
 Charge =  0 Multiplicity = 1

 SCF Done:  E(RB3LYP) =  -783.534878734     A.U. after   19 cycles
 SCF Done:  E(RB3LYP) =  -783.580891369     A.U. after   16 cycles
 SCF Done:  E(RB3LYP) =  -783.644064972     A.U. after   15 cycles
 SCF Done:  E(RB3LYP) =  -783.671551954     A.U. after   14 cycles
 SCF Done:  E(RB3LYP) =  -783.710188951     A.U. after   12 cycles
 SCF Done:  E(RB3LYP) =  -783.718974745     A.U. after   12 cycles
 SCF Done:  E(RB3LYP) =  -783.721859247     A.U. after   11 cycles
 SCF Done:  E(RB3LYP) =  -783.723716955     A.U. after   11 cycles
 SCF Done:  E(RB3LYP) =  -783.725317476     A.U. after   11 cycles
 SCF Done:  E(RB3LYP) =  -783.726672751     A.U. after   11 cycles
 SCF Done:  E(RB3LYP) =  -783.729848052     A.U. after   10 cycles
 SCF Done:  E(RB3LYP) =  -783.729854599     A.U. after    8 cycles
 SCF Done:  E(RB3LYP) =  -783.729868658     A.U. after    9 cycles
 SCF Done:  E(RB3LYP) =  -783.729870831     A.U. after    9 cycles
 SCF Done:  E(RB3LYP) =  -783.729871802     A.U. after    9 cycles
 SCF Done:  E(RB3LYP) =  -783.729873306     A.U. after    8 cycles
 SCF Done:  E(RB3LYP) =  -783.729873757     A.U. after    7 cycles
 SCF Done:  E(RB3LYP) =  -783.729873730     A.U. after    6 cycles
 SCF Done:  E(RB3LYP) =  -783.729873742     A.U. after    5 cycles
 Optimization completed.
    -- Stationary point found.
 Normal termination of Gaussian 16 at Tue May 16 02:15:32 2023.

 ----------------------------------------------------------------------
 #N Geom=AllCheck Guess=TCheck SCRF=Check GenChk RB3LYP/6-31G(2df,p) Fr
 eq
 ----------------------------------------------------------------------

 Structure from the checkpoint file:  "COPqCrqdOrN1CCCC1.chk"
 -------------------
 Title Card Required
 -------------------
 Charge =  0 Multiplicity = 1

                         Standard orientation:
 ---------------------------------------------------------------------
 Center     Atomic      Atomic             Coordinates (Angstroms)
 Number     Number       Type             X           Y           Z
 ---------------------------------------------------------------------
      1          6           0       -2.826219   -0.579768    1.291758
      2          8           0       -1.470424   -0.675837    0.852363
      3         15           0       -0.914149    0.325557   -0.293115
      4          6           0       -1.436880   -0.474641   -1.832478
      5          8           0       -1.349514    1.724389   -0.139594
      6          7           0        0.719943    0.115702   -0.207754
      7          6           0        1.400336   -1.186870   -0.335403
      8          6           0        2.768702   -0.966273    0.336693
      9          6           0        2.991763    0.548393    0.209528
     10          6           0        1.588151    1.114595    0.444537
     11          1           0       -2.894605   -1.108412    2.245047
     12          1           0       -3.507044   -1.054974    0.574463
     13          1           0       -3.113947    0.466435    1.426787
     14          1           0       -2.528888   -0.521088   -1.861695
     15          1           0       -1.040553   -1.489816   -1.912840
     16          1           0       -1.091814    0.117666   -2.682806
     17          1           0        1.521639   -1.454575   -1.393800
     18          1           0        0.833963   -1.988909    0.149833
     19          1           0        3.557413   -1.564930   -0.125098
     20          1           0        2.713505   -1.246520    1.394017
     21          1           0        3.332867    0.800106   -0.800788
     22          1           0        3.723716    0.937855    0.921077
     23          1           0        1.430664    2.101413    0.005499
     24          1           0        1.380097    1.191440    1.521345
 ---------------------------------------------------------------------

 SCF Done:  E(RB3LYP) =  -783.729873742     A.U. after    1 cycles

 The electronic state is 1-A.
 Alpha  occ. eigenvalues --  -77.16146 -19.14851 -19.06980 -14.32105 -10.23239
 Alpha  occ. eigenvalues --  -10.21763 -10.20985 -10.19013 -10.18707 -10.18283
 Alpha  occ. eigenvalues --   -6.61377  -4.77816  -4.77660  -4.77528  -1.03937
 Alpha  occ. eigenvalues --   -0.94768  -0.91447  -0.77892  -0.73387  -0.72174
 Alpha  occ. eigenvalues --   -0.69350  -0.61054  -0.58952  -0.54650  -0.51010
 Alpha  occ. eigenvalues --   -0.49288  -0.46021  -0.45045  -0.44145  -0.43128
 Alpha  occ. eigenvalues --   -0.41958  -0.41084  -0.40947  -0.39179  -0.37595
 Alpha  occ. eigenvalues --   -0.36304  -0.35034  -0.34546  -0.33416  -0.32855
 Alpha  occ. eigenvalues --   -0.29043  -0.27164  -0.26398  -0.23005
 Alpha virt. eigenvalues --    0.07244   0.08771   0.09165   0.09601   0.12123
 Alpha virt. eigenvalues --    0.12687   0.12999   0.14344   0.15371   0.15634
 Alpha virt. eigenvalues --    0.15873   0.16031   0.16631   0.16880   0.17731

 Mulliken charges:
               1
     1  C   -0.242815
     2  O   -0.200776
     3  P    0.382638
     4  C   -0.505575
     5  O   -0.368298
     6  N   -0.023321
     7  C   -0.176687
     8  C   -0.215722
     9  C   -0.216968
    10  C   -0.145795
    11  H    0.129646
    12  H    0.117279
    13  H    0.154555
    14  H    0.142504
    15  H    0.135706
    16  H    0.148662
    17  H    0.101742
    18  H    0.118292
    19  H    0.103164
    20  H    0.111388
    21  H    0.108019
    22  H    0.104228
    23  H    0.131846
    24  H    0.106288
 Sum of Mulliken charges =  -0.00000

 Dipole moment (field-independent basis, Debye):
    X=              1.2194    Y=             -3.0494    Z=             -0.2930  Tot=              3.2972
 Quadrupole moment (field-independent basis, Debye-Ang):
   XX=            -60.3802   YY=            -73.2334   ZZ=            -64.6401
   XY=              5.4069   XZ=             -0.4635   YZ=              1.1757

  Exact polarizability: 110.496   1.322  87.789   0.077   2.051  86.783
 Approx polarizability: 135.721  -1.421 133.625  -0.896   2.141 125.257

                      1                      2                      3
                      A                      A                      A
 Frequencies --     39.0742                42.8327                81.2574
 Red. masses --      2.9040                 2.8433                 2.7508
 Frc consts  --      0.0026                 0.0031                 0.0107
 IR Inten    --      0.9568                 0.1913                 3.2770

                      4                      5                      6
                      A                      A                      A
 Frequencies --    110.5660               120.4126               155.3640
 Red. masses --      1.1296                 2.3071                 3.5056
 Frc consts  --      0.0081                 0.0197                 0.0499
 IR Inten    --      0.2461                 4.3340                 4.3490

                      7                      8                      9
                      A                      A                      A
 Frequencies --    176.7687               220.7226               257.6988
 Red. masses --      1.0480                 3.4805                 1.7096
 Frc consts  --      0.0193                 0.0999                 0.0669
 IR Inten    --      0.9301                 5.8641                 0.2141

                     10                     11                     12
                      A                      A                      A
 Frequencies --    274.8862               277.0087               349.1544
 Red. masses --      3.2481                 3.7813                 4.9953
 Frc consts  --      0.1446                 0.1710                 0.3588
 IR Inten    --      3.9124                 2.8284                 4.3273

                     13                     14                     15
                      A                      A                      A
 Frequencies --    394.1359               457.8503               533.5723
 Red. masses --      5.3042                 6.7382                 4.9430
 Frc consts  --      0.4855                 0.8322                 0.8291
 IR Inten    --     13.5293                25.9617                38.7843

                     16                     17                     18
                      A                      A                      A
 Frequencies --    575.3031               707.2218               765.9698
 Red. masses --      1.7933                 4.5157                 2.4139
 Frc consts  --      0.3497                 1.3307                 0.8344
 IR Inten    --      0.9364                28.7012                30.8149

                     19                     20                     21
                      A                      A                      A
 Frequencies --    779.5522               862.0200               885.3107
 Red. masses --      4.0560                 1.6981                 1.8993
 Frc consts  --      1.4522                 0.7435                 0.8771
 IR Inten    --     84.1670                 9.2438                 5.9411

                     22                     23                     24
                      A                      A                      A
 Frequencies --    891.3886               912.7357               922.1771
 Red. masses --      1.5917                 1.6698                 2.1791
 Frc consts  --      0.7452                 0.8196                 1.0919
 IR Inten    --     16.4184                69.1616                 2.5357

                     25                     26                     27
                      A                      A                      A
 Frequencies --    932.3403               974.3012              1025.7580
 Red. masses --      1.5944                 1.5213                 2.2748
 Frc consts  --      0.8166                 0.8509                 1.4102
 IR Inten    --      5.3519                 0.3269                43.2002

                     28                     29                     30
                      A                      A                      A
 Frequencies --   1076.4179              1119.8888              1146.5835
 Red. masses --      7.8109                 2.1223                 4.6346
 Frc consts  --      5.3323                 1.5682                 3.5898
 IR Inten    --    351.9573                89.1193                58.9017

                     31                     32                     33
                      A                      A                      A
 Frequencies --   1159.3875              1182.6968              1193.1713
 Red. masses --      1.8339                 1.2651                 1.3648
 Frc consts  --      1.4524                 1.0426                 1.1448
 IR Inten    --     13.6582                 3.0162                 4.4831

                     34                     35                     36
                      A                      A                      A
 Frequencies --   1202.2918              1217.0686              1263.6846
 Red. masses --      1.3720                 1.9178                 1.2874
 Frc consts  --      1.1685                 1.6737                 1.2113
 IR Inten    --     15.3695                52.8894                 7.5733

                     37                     38                     39
                      A                      A                      A
 Frequencies --   1267.1424              1293.8128              1323.4568
 Red. masses --      1.2698                 6.5566                 1.3622
 Frc consts  --      1.2013                 6.4665                 1.4058
 IR Inten    --      3.0279               177.4396                 2.0865

                     40                     41                     42
                      A                      A                      A
 Frequencies --   1333.1907              1346.7234              1366.0117
 Red. masses --      1.3233                 1.2575                 1.3433
 Frc consts  --      1.3858                 1.3438                 1.4769
 IR Inten    --     37.1393                 0.2436                 0.6770

                     43                     44                     45
                      A                      A                      A
 Frequencies --   1387.3641              1458.5743              1461.4151
 Red. masses --      1.3958                 1.0496                 1.0536
 Frc consts  --      1.5829                 1.3156                 1.3258
 IR Inten    --     15.6831                 1.8071                 1.9064

                     46                     47                     48
                      A                      A                      A
 Frequencies --   1476.4576              1488.7186              1497.0562
 Red. masses --      1.1254                 1.0899                 1.0988
 Frc consts  --      1.4454                 1.4231                 1.4510
 IR Inten    --      0.2586                 2.6313                 2.0552

                     49                     50                     51
                      A                      A                      A
 Frequencies --   1498.5270              1505.0738              1523.8577
 Red. masses --      1.0601                 1.0487                 1.0821
 Frc consts  --      1.4026                 1.3996                 1.4805
 IR Inten    --      4.3308                 6.8477                 1.1518

                     52                     53                     54
                      A                      A                      A
 Frequencies --   1535.2403              2997.5370              3002.5593
 Red. masses --      1.0927                 1.0717                 1.0677
 Frc consts  --      1.5174                 5.6733                 5.6712
 IR Inten    --      4.1590                68.0621                24.6241

                     55                     56                     57
                      A                      A                      A
 Frequencies --   3018.9479              3044.6188              3048.8544
 Red. masses --      1.0366                 1.0715                 1.0654
 Frc consts  --      5.5662                 5.8521                 5.8348
 IR Inten    --     59.2293                18.0998                12.9194

                     58                     59                     60
                      A                      A                      A
 Frequencies --   3051.5005              3062.0312              3096.6847
 Red. masses --      1.0335                 1.0869                 1.0961
 Frc consts  --      5.6701                 6.0042                 6.1931
 IR Inten    --      2.1797                38.1606                26.8549

                     61                     62                     63
                      A                      A                      A
 Frequencies --   3102.5368              3106.3351              3112.8462
 Red. masses --      1.0973                 1.0937                 1.1036
 Frc consts  --      6.2230                 6.2182                 6.3005
 IR Inten    --     27.6058                19.9451                36.3579

                     64                     65                     66
                      A                      A                      A
 Frequencies --   3130.4319              3133.2198              3142.9127
 Red. masses --      1.1062                 1.1012                 1.1024
 Frc consts  --      6.3872                 6.3696                 6.4158
 IR Inten    --     13.9456                 8.8984                 4.6242

 - Thermochemistry -
 -------------------
 Temperature   298.150 Kelvin.  Pressure   1.00000 Atm.
 Atom     1 has atomic number  6 and mass  12.00000

 Molecular mass:   163.07622 amu.
 Principal axes and moments of inertia in atomic units:
                           1         2         3
     Eigenvalues --   874.661052402.056562488.73442
           X            0.99989   0.01429   0.00327
           Y           -0.01460   0.98990   0.14100
           Z           -0.00122  -0.14103   0.99000
 This molecule is an asymmetric top.
 Rotational symmetry number  1.
 Warning -- assumption of classical behavior for rotation
           may cause significant error
 Rotational temperatures (Kelvin)      0.09903     0.03606     0.03480
 Rotational constants (GHZ):           2.06336     0.75133     0.72516
 Zero-point vibrational energy     538919.0 (Joules/Mol)
                                  128.80472 (Kcal/Mol)
 Warning -- explicit consideration of  16 degrees of freedom as
           vibrations may cause significant error
 Vibrational temperatures:     56.22    61.63   116.91   159.08   173.25
          (Kelvin)            223.53   254.33   317.57   370.77   395.50
                              398.55   502.36   567.07   658.74   767.69
                              827.73  1017.53  1102.06  1121.60  1240.25
                             1273.76  1282.51  1313.22  1326.81  1341.43
                             1401.80  1475.84  1548.73  1611.27  1649.68
                             1668.10  1701.64  1716.71  1729.83  1751.09
                             1818.16  1823.14  1861.51  1904.16  1918.16
                             1937.63  1965.39  1996.11  2098.56  2102.65
                             2124.29  2141.93  2153.93  2156.05  2165.47
                             2192.49  2208.87  4312.79  4320.01  4343.59
                             4380.53  4386.62  4390.43  4405.58  4455.44
                             4463.86  4469.32  4478.69  4503.99  4508.00
                             4521.95

 Zero-point correction=                           0.205263 (Hartree/Particle)
 Thermal correction to Energy=                    0.217402
 Thermal correction to Enthalpy=                  0.218346
 Thermal correction to Gibbs Free Energy=         0.166053
 Sum of electronic and zero-point Energies=           -783.524610
 Sum of electronic and thermal Energies=              -783.512472
 Sum of electronic and thermal Enthalpies=            -783.511528
 Sum of electronic and thermal Free Energies=         -783.563821

                     E (Thermal)             CV                S
                      KCal/Mol        Cal/Mol-Kelvin    Cal/Mol-Kelvin
 Total                  136.422             42.811            110.060
 Electronic               0.000              0.000              0.000
 Translational            0.889              2.981             41.176
 Rotational               0.889              2.981             30.037
 Vibrational            134.644             36.849             38.847
 Vibration     1          0.594              1.981              5.305
 Vibration     2          0.595              1.980              5.124
 Vibration     3          0.600              1.962              3.860
 Vibration     4          0.606              1.941              3.259
 Vibration     5          0.609              1.932              3.094
 Vibration     6          0.620              1.897              2.605
 Vibration     7          0.628              1.871              2.362
 Vibration     8          0.647              1.810              1.953
 Vibration     9          0.667              1.750              1.677
 Vibration    10          0.677              1.720              1.565
 Vibration    11          0.678              1.716              1.552
 Vibration    12          0.726              1.577              1.170
 Vibration    13          0.761              1.483              0.984
 Vibration    14          0.816              1.344              0.772
 Vibration    15          0.889              1.176              0.579
 Vibration    16          0.932              1.085              0.494
