 Gaussian 16, Revision A.03,
 Gaussian 16:  ES64L-G16RevA.03 25-Dec-2016

 -----------------------------
 # opt freq b3lyp/6-31g(2df,p)
 -----------------------------

 -------------------
 Title Card Required
 -------------------
 Symbolic Z-matrix:
 Charge =  0 Multiplicity = 1

 SCF Done:  E(RB3LYP) =  -649.728038185     A.U. after   14 cycles
 SCF Done:  E(RB3LYP) =  -649.734047969     A.U. after   11 cycles
 SCF Done:  E(RB3LYP) =  -649.734936691     A.U. after   11 cycles
 SCF Done:  E(RB3LYP) =  -649.735196814     A.U. after   10 cycles
 SCF Done:  E(RB3LYP) =  -649.735412797     A.U. after   11 cycles
 SCF Done:  E(RB3LYP) =  -649.735445517     A.U. after   10 cycles
 SCF Done:  E(RB3LYP) =  -649.735542906     A.U. after    9 cycles
 SCF Done:  E(RB3LYP) =  -649.735786697     A.U. after   11 cycles
 SCF Done:  E(RB3LYP) =  -649.735820612     A.U. after   10 cycles
 SCF Done:  E(RB3LYP) =  -649.735865527     A.U. after   10 cycles
 SCF Done:  E(RB3LYP) =  -649.735869848     A.U. after    9 cycles
 SCF Done:  E(RB3LYP) =  -649.735870429     A.U. after    7 cycles
 SCF Done:  E(RB3LYP) =  -649.735870505     A.U. after    7 cycles
 Optimization completed.
    -- Stationary point found.
 Normal termination of Gaussian 16 at Mon May 15 21:23:06 2023.

 ----------------------------------------------------------------------
 #N Geom=AllCheck Guess=TCheck SCRF=Check GenChk RB3LYP/6-31G(2df,p) Fr
 eq
 ----------------------------------------------------------------------

 Structure from the checkpoint file:  "CP1qdOrCCCO1.chk"
 -------------------
 Title Card Required
 -------------------
 Charge =  0 Multiplicity = 1

                         Standard orientation:
 ---------------------------------------------------------------------
 Center     Atomic      Atomic             Coordinates (Angstroms)
 Number     Number       Type             X           Y           Z
 ---------------------------------------------------------------------
      1          6           0       -1.632325    0.881102   -1.037570
      2         15           0       -0.690314   -0.108688    0.153230
      3          8           0       -1.527814   -0.918236    1.055089
      4          6           0        0.591547    0.943934    0.949040
      5          6           0        1.863950    0.690955    0.118388
      6          6           0        1.723560   -0.738082   -0.428745
      7          8           0        0.348954   -0.911510   -0.808052
      8          1           0       -2.360990    1.496988   -0.505284
      9          1           0       -2.171000    0.201576   -1.702885
     10          1           0       -0.974802    1.517610   -1.634971
     11          1           0        0.695855    0.586388    1.977661
     12          1           0        0.298843    1.995277    0.986661
     13          1           0        2.780108    0.807778    0.704283
     14          1           0        1.914406    1.394980   -0.718871
     15          1           0        1.989455   -1.485289    0.329856
     16          1           0        2.333314   -0.914471   -1.317871
 ---------------------------------------------------------------------

 SCF Done:  E(RB3LYP) =  -649.735870506     A.U. after    1 cycles

 The electronic state is 1-A.
 Alpha  occ. eigenvalues --  -77.15796 -19.15617 -19.07682 -10.24932 -10.20771
 Alpha  occ. eigenvalues --  -10.19780 -10.19091  -6.61368  -4.77842  -4.77592
 Alpha  occ. eigenvalues --   -4.77444  -1.04905  -0.94624  -0.79723  -0.74435
 Alpha  occ. eigenvalues --   -0.69755  -0.61309  -0.54880  -0.50391  -0.49340
 Alpha  occ. eigenvalues --   -0.44251  -0.43788  -0.42532  -0.40986  -0.39966
 Alpha  occ. eigenvalues --   -0.37960  -0.35311  -0.35104  -0.33995  -0.30323
 Alpha  occ. eigenvalues --   -0.27242  -0.25934
 Alpha virt. eigenvalues --    0.06213   0.07692   0.08227   0.09219   0.11511
 Alpha virt. eigenvalues --    0.12703   0.13923   0.14676   0.15124   0.16143
 Alpha virt. eigenvalues --    0.16844   0.17946   0.19757   0.20312   0.24243

 Mulliken charges:
               1
     1  C   -0.473348
     2  P    0.430778
     3  O   -0.311714
     4  C   -0.309304
     5  C   -0.233403
     6  C   -0.073885
     7  O   -0.216846
     8  H    0.149249
     9  H    0.161545
    10  H    0.133495
    11  H    0.147262
    12  H    0.124032
    13  H    0.113848
    14  H    0.115404
    15  H    0.122405
    16  H    0.120480
 Sum of Mulliken charges =  -0.00000

 Dipole moment (field-independent basis, Debye):
    X=              3.0065    Y=              3.1526    Z=             -1.4781  Tot=              4.6003
 Quadrupole moment (field-independent basis, Debye-Ang):
   XX=            -47.6895   YY=            -49.9574   ZZ=            -50.1399
   XY=             -4.6290   XZ=              4.5833   YZ=              1.4645

  Exact polarizability:  74.163  -1.238  60.553   0.921  -1.129  60.879
 Approx polarizability:  98.864   1.981  90.099  -2.330  -3.052  92.118

                      1                      2                      3
                      A                      A                      A
 Frequencies --     70.0056               163.6822               191.2179
 Red. masses --      3.0699                 1.0705                 2.1235
 Frc consts  --      0.0089                 0.0169                 0.0457
 IR Inten    --      3.0406                 0.4389                 1.6392

                      4                      5                      6
                      A                      A                      A
 Frequencies --    256.6899               271.0492               341.0324
 Red. masses --      1.8367                 3.2480                 4.8008
 Frc consts  --      0.0713                 0.1406                 0.3290
 IR Inten    --      1.4999                 1.9572                 8.9972

                      7                      8                      9
                      A                      A                      A
 Frequencies --    391.4480               488.7583               570.5622
 Red. masses --      6.8232                 4.0148                 2.4921
 Frc consts  --      0.6160                 0.5651                 0.4780
 IR Inten    --     21.9413                10.1014                 3.5015

                     10                     11                     12
                      A                      A                      A
 Frequencies --    658.5859               730.4589               774.1508
 Red. masses --      3.2142                 2.6774                 3.5118
 Frc consts  --      0.8214                 0.8417                 1.2400
 IR Inten    --      1.2014                36.5895                47.9519

                     13                     14                     15
                      A                      A                      A
 Frequencies --    813.0480               875.3371               896.9323
 Red. masses --      2.0642                 1.6895                 1.4986
 Frc consts  --      0.8039                 0.7627                 0.7103
 IR Inten    --     43.8090                42.1447                18.5637

                     16                     17                     18
                      A                      A                      A
 Frequencies --    903.5156               915.2610               998.4780
 Red. masses --      2.5119                 1.7888                 1.5508
 Frc consts  --      1.2081                 0.8829                 0.9109
 IR Inten    --      3.3464                47.4738                 1.4085

                     19                     20                     21
                      A                      A                      A
 Frequencies --   1019.6209              1055.0554              1175.7077
 Red. masses --      1.5880                 4.0430                 1.5927
 Frc consts  --      0.9727                 2.6516                 1.2971
 IR Inten    --     72.6188               120.4971                 9.4435

                     22                     23                     24
                      A                      A                      A
 Frequencies --   1188.2860              1259.3663              1265.4109
 Red. masses --      1.4687                 1.1863                 1.6232
 Frc consts  --      1.2219                 1.1085                 1.5314
 IR Inten    --      3.0814                13.1014                30.5762

                     25                     26                     27
                      A                      A                      A
 Frequencies --   1300.8845              1330.3988              1347.8830
 Red. masses --      2.8344                 1.4188                 1.3268
 Frc consts  --      2.8261                 1.4796                 1.4202
 IR Inten    --    120.4034                49.9022                 3.0039

                     28                     29                     30
                      A                      A                      A
 Frequencies --   1389.6108              1454.1604              1458.0916
 Red. masses --      1.2850                 1.0575                 1.0564
 Frc consts  --      1.4620                 1.3175                 1.3233
 IR Inten    --      2.8187                 7.0870                 1.9912

                     31                     32                     33
                      A                      A                      A
 Frequencies --   1459.5660              1490.1064              1521.6102
 Red. masses --      1.0673                 1.0941                 1.0882
 Frc consts  --      1.3397                 1.4313                 1.4845
 IR Inten    --      1.6334                 4.4623                 0.0200

                     34                     35                     36
                      A                      A                      A
 Frequencies --   3026.9047              3048.7844              3050.4666
 Red. masses --      1.0669                 1.0608                 1.0331
 Frc consts  --      5.7593                 5.8092                 5.6641
 IR Inten    --     43.1493                20.1153                 2.3449

                     37                     38                     39
                      A                      A                      A
 Frequencies --   3068.4664              3095.1787              3105.5838
 Red. masses --      1.0615                 1.0979                 1.1031
 Frc consts  --      5.8884                 6.1968                 6.2681
 IR Inten    --      6.1696                21.2946                27.6572

                     40                     41                     42
                      A                      A                      A
 Frequencies --   3124.0618              3138.7522              3142.1477
 Red. masses --      1.1042                 1.1024                 1.1022
 Frc consts  --      6.3496                 6.3991                 6.4116
 IR Inten    --      9.2135                 5.7923                 2.9304

 - Thermochemistry -
 -------------------
 Temperature   298.150 Kelvin.  Pressure   1.00000 Atm.
 Atom     1 has atomic number  6 and mass  12.00000

 Molecular mass:   120.03402 amu.
 Principal axes and moments of inertia in atomic units:
                           1         2         3
     Eigenvalues --   507.39261 960.73158 979.72721
           X            0.99828  -0.03033   0.05026
           Y            0.03461   0.99565  -0.08656
           Z           -0.04742   0.08815   0.99498
 This molecule is an asymmetric top.
 Rotational symmetry number  1.
 Warning -- assumption of classical behavior for rotation
           may cause significant error
 Rotational temperatures (Kelvin)      0.17070     0.09015     0.08841
 Rotational constants (GHZ):           3.55689     1.87851     1.84209
 Zero-point vibrational energy     345878.2 (Joules/Mol)
                                   82.66687 (Kcal/Mol)
 Warning -- explicit consideration of   9 degrees of freedom as
           vibrations may cause significant error
 Vibrational temperatures:    100.72   235.50   275.12   369.32   389.98
          (Kelvin)            490.67   563.21   703.21   820.91   947.56
                             1050.97  1113.83  1169.79  1259.41  1290.49
                             1299.96  1316.86  1436.59  1467.01  1517.99
                             1691.58  1709.68  1811.95  1820.64  1871.68
                             1914.15  1939.30  1999.34  2092.21  2097.87
                             2099.99  2143.93  2189.26  4355.04  4386.52
                             4388.94  4414.84  4453.27  4468.24  4494.83
                             4515.96  4520.85

 Zero-point correction=                           0.131738 (Hartree/Particle)
 Thermal correction to Energy=                    0.139431
 Thermal correction to Enthalpy=                  0.140375
 Thermal correction to Gibbs Free Energy=         0.099679
 Sum of electronic and zero-point Energies=           -649.604132
 Sum of electronic and thermal Energies=              -649.596440
 Sum of electronic and thermal Enthalpies=            -649.595495
 Sum of electronic and thermal Free Energies=         -649.636191

                     E (Thermal)             CV                S
                      KCal/Mol        Cal/Mol-Kelvin    Cal/Mol-Kelvin
 Total                   87.494             28.370             85.651
 Electronic               0.000              0.000              0.000
 Translational            0.889              2.981             40.262
 Rotational               0.889              2.981             27.659
 Vibrational             85.717             22.408             17.730
 Vibration     1          0.598              1.968              4.153
 Vibration     2          0.623              1.887              2.507
 Vibration     3          0.634              1.852              2.216
 Vibration     4          0.666              1.751              1.684
 Vibration     5          0.675              1.727              1.590
 Vibration     6          0.721              1.593              1.207
 Vibration     7          0.759              1.488              0.995
 Vibration     8          0.845              1.275              0.687
 Vibration     9          0.927              1.095              0.503

                           ! Non-Optimized Parameters !
 Normal termination of Gaussian 16 at Mon May 15 21:40:07 2023.
