 Gaussian 16, Revision A.03,
 Gaussian 16:  ES64L-G16RevA.03 25-Dec-2016

 -----------------------------
 # opt freq b3lyp/6-31g(2df,p)
 -----------------------------

 -------------------
 Title Card Required
 -------------------
 Symbolic Z-matrix:
 Charge =  0 Multiplicity = 1

 SCF Done:  E(RB3LYP) =  -313.227701620     A.U. after   13 cycles
 SCF Done:  E(RB3LYP) =  -313.246710503     A.U. after   12 cycles
 SCF Done:  E(RB3LYP) =  -313.247234215     A.U. after   11 cycles
 SCF Done:  E(RB3LYP) =  -313.238485593     A.U. after   13 cycles
 SCF Done:  E(RB3LYP) =  -313.247228318     A.U. after   11 cycles
 SCF Done:  E(RB3LYP) =  -313.247696331     A.U. after   10 cycles
 SCF Done:  E(RB3LYP) =  -313.247869440     A.U. after   10 cycles
 SCF Done:  E(RB3LYP) =  -313.247464815     A.U. after   10 cycles
 SCF Done:  E(RB3LYP) =  -313.247956072     A.U. after   10 cycles
 SCF Done:  E(RB3LYP) =  -313.247956976     A.U. after    7 cycles
 SCF Done:  E(RB3LYP) =  -313.247957406     A.U. after    7 cycles
 Optimization completed.
    -- Stationary point found.
 Normal termination of Gaussian 16 at Mon May 15 15:22:47 2023.

 ----------------------------------------------------------------------
 #N Geom=AllCheck Guess=TCheck SCRF=Check GenChk RB3LYP/6-31G(2df,p) Fr
 eq
 ----------------------------------------------------------------------

 Structure from the checkpoint file:  "CtCCCCqCrqCrC.chk"
 -------------------
 Title Card Required
 -------------------
 Charge =  0 Multiplicity = 1

                         Standard orientation:
 ---------------------------------------------------------------------
 Center     Atomic      Atomic             Coordinates (Angstroms)
 Number     Number       Type             X           Y           Z
 ---------------------------------------------------------------------
      1          6           0        3.772092    0.370169   -0.000225
      2          6           0        2.660992   -0.088788    0.000191
      3          6           0        1.300187   -0.612415    0.000014
      4          6           0        0.243061    0.513698    0.000672
      5          6           0       -1.238278    0.062716   -0.000002
      6          6           0       -1.564148   -0.761439   -1.259630
      7          6           0       -1.564530   -0.763954    1.257878
      8          6           0       -2.108933    1.333969    0.001122
      9          1           0        4.758492    0.762357    0.000435
     10          1           0        1.165736   -1.257620    0.876429
     11          1           0        1.165620   -1.256761   -0.877022
     12          1           0        0.420450    1.148902   -0.875432
     13          1           0        0.420070    1.147505    0.877868
     14          1           0       -1.016693   -1.709014   -1.285026
     15          1           0       -1.317804   -0.205923   -2.171451
     16          1           0       -2.631933   -1.003137   -1.296167
     17          1           0       -1.017140   -1.711612    1.281488
     18          1           0       -2.632340   -1.005650    1.293658
     19          1           0       -1.318378   -0.210299    2.170883
     20          1           0       -1.912017    1.950035   -0.883157
     21          1           0       -1.912372    1.948228    0.886735
     22          1           0       -3.174344    1.079253    0.000646
 ---------------------------------------------------------------------

 SCF Done:  E(RB3LYP) =  -313.247957406     A.U. after    1 cycles

 The electronic state is 1-A.
 Alpha  occ. eigenvalues --  -10.20309 -10.19655 -10.18264 -10.17529 -10.17257
 Alpha  occ. eigenvalues --  -10.17257 -10.17115 -10.16359  -0.82929  -0.77847
 Alpha  occ. eigenvalues --   -0.71068  -0.68479  -0.68408  -0.63916  -0.53184
 Alpha  occ. eigenvalues --   -0.52045  -0.46850  -0.46623  -0.44349  -0.43250
 Alpha  occ. eigenvalues --   -0.42006  -0.39634  -0.38244  -0.36587  -0.36385
 Alpha  occ. eigenvalues --   -0.35370  -0.32407  -0.31979  -0.31763  -0.25748
 Alpha  occ. eigenvalues --   -0.25639
 Alpha virt. eigenvalues --    0.05807   0.06293   0.07659   0.11679   0.12817
 Alpha virt. eigenvalues --    0.13256   0.13474   0.14228   0.14468   0.16073
 Alpha virt. eigenvalues --    0.17181   0.17961   0.19505   0.20205   0.21358

 Mulliken charges:
               1
     1  C   -0.436198
     2  C    0.295959
     3  C   -0.380613
     4  C   -0.176242
     5  C    0.264172
     6  C   -0.403346
     7  C   -0.403345
     8  C   -0.407500
     9  H    0.191158
    10  H    0.130582
    11  H    0.130592
    12  H    0.102586
    13  H    0.102572
    14  H    0.111407
    15  H    0.110189
    16  H    0.109754
    17  H    0.111411
    18  H    0.109751
    19  H    0.110182
    20  H    0.109587
    21  H    0.109583
    22  H    0.107759
 Sum of Mulliken charges =   0.00000

 Dipole moment (field-independent basis, Debye):
    X=             -0.8765    Y=             -0.1242    Z=              0.0006  Tot=              0.8852
 Quadrupole moment (field-independent basis, Debye-Ang):
   XX=            -51.0203   YY=            -51.5350   ZZ=            -52.0196
   XY=              1.4607   XZ=              0.0031   YZ=              0.0003

  Exact polarizability: 109.327   6.402  73.577  -0.005  -0.002  70.396
 Approx polarizability: 146.404  15.665 109.032  -0.016  -0.007 102.589

                      1                      2                      3
                      A                      A                      A
 Frequencies --     54.8136                98.1689               123.1514
 Red. masses --      2.6418                 2.0040                 3.3725
 Frc consts  --      0.0047                 0.0114                 0.0301
 IR Inten    --      0.0845                 0.0103                 0.0866

                      4                      5                      6
                      A                      A                      A
 Frequencies --    222.8396               235.6013               264.9419
 Red. masses --      1.0643                 3.3532                 1.0661
 Frc consts  --      0.0311                 0.1097                 0.0441
 IR Inten    --      0.0041                 0.2537                 0.0482

                      7                      8                      9
                      A                      A                      A
 Frequencies --    269.1899               328.4948               330.6215
 Red. masses --      1.0663                 2.1114                 2.5188
 Frc consts  --      0.0455                 0.1342                 0.1622
 IR Inten    --      0.0188                 0.3610                 0.0775

                     10                     11                     12
                      A                      A                      A
 Frequencies --    349.0038               383.9022               414.9047
 Red. masses --      3.0938                 2.5729                 2.0828
 Frc consts  --      0.2220                 0.2234                 0.2113
 IR Inten    --      2.5378                 0.6632                 0.0564

                     13                     14                     15
                      A                      A                      A
 Frequencies --    471.4795               519.1185               614.5208
 Red. masses --      2.7862                 3.6057                 1.1994
 Frc consts  --      0.3649                 0.5725                 0.2669
 IR Inten    --      0.8817                 3.1911                43.7204

                     16                     17                     18
                      A                      A                      A
 Frequencies --    632.7594               752.5176               763.6388
 Red. masses --      1.2213                 3.4836                 1.2229
 Frc consts  --      0.2881                 1.1623                 0.4201
 IR Inten    --     42.4694                 0.1304                 0.4311

                     19                     20                     21
                      A                      A                      A
 Frequencies --    914.6099               932.0434               939.5571
 Red. masses --      2.2672                 1.9236                 1.7677
 Frc consts  --      1.1174                 0.9846                 0.9194
 IR Inten    --      2.1610                 0.1998                 0.3216

                     22                     23                     24
                      A                      A                      A
 Frequencies --    958.3203               959.4383               971.2618
 Red. masses --      1.2050                 3.4788                 1.3763
 Frc consts  --      0.6520                 1.8867                 0.7649
 IR Inten    --      0.0140                 1.1496                 0.0019

                     25                     26                     27
                      A                      A                      A
 Frequencies --   1025.3125              1064.9106              1079.8250
 Red. masses --      2.2295                 1.8259                 1.4909
 Frc consts  --      1.3809                 1.2200                 1.0242
 IR Inten    --      0.5534                 0.6363                 0.1198

                     28                     29                     30
                      A                      A                      A
 Frequencies --   1176.3834              1219.5615              1270.0992
 Red. masses --      1.3054                 2.0321                 2.6766
 Frc consts  --      1.0644                 1.7807                 2.5439
 IR Inten    --      0.9254                 3.5138                11.3027

                     31                     32                     33
                      A                      A                      A
 Frequencies --   1272.9811              1305.2554              1339.4444
 Red. masses --      1.7156                 1.5263                 1.2218
 Frc consts  --      1.6380                 1.5321                 1.2915
 IR Inten    --      2.4287                 3.3091                 0.7524

                     34                     35                     36
                      A                      A                      A
 Frequencies --   1381.8782              1399.8935              1400.4958
 Red. masses --      1.4620                 1.2295                 1.2378
 Frc consts  --      1.6449                 1.4196                 1.4304
 IR Inten    --      0.5189                 5.2994                 6.0697

                     37                     38                     39
                      A                      A                      A
 Frequencies --   1432.5400              1470.7564              1480.9755
 Red. masses --      1.2282                 1.0760                 1.0482
 Frc consts  --      1.4851                 1.3714                 1.3545
 IR Inten    --      3.3574                 1.2244                 0.0517

                     40                     41                     42
                      A                      A                      A
 Frequencies --   1485.1121              1486.5827              1491.0549
 Red. masses --      1.0598                 1.0441                 1.0755
 Frc consts  --      1.3772                 1.3595                 1.4088
 IR Inten    --      0.1453                 0.3922                 0.3740

                     43                     44                     45
                      A                      A                      A
 Frequencies --   1508.0834              1509.6229              1518.5730
 Red. masses --      1.0606                 1.0599                 1.0611
 Frc consts  --      1.4211                 1.4231                 1.4417
 IR Inten    --      3.1329                 5.0746                11.8162

                     46                     47                     48
                      A                      A                      A
 Frequencies --   2238.1453              3021.4452              3022.1765
 Red. masses --      5.9397                 1.0392                 1.0493
 Frc consts  --     17.5304                 5.5896                 5.6465
 IR Inten    --      6.2438                13.6163                13.3950

                     49                     50                     51
                      A                      A                      A
 Frequencies --   3023.8133              3032.6437              3033.8701
 Red. masses --      1.0351                 1.0463                 1.0526
 Frc consts  --      5.5764                 5.6696                 5.7084
 IR Inten    --     29.4833                23.4381                20.1312

                     52                     53                     54
                      A                      A                      A
 Frequencies --   3052.6868              3075.3685              3090.0724
 Red. masses --      1.1004                 1.1040                 1.1017
 Frc consts  --      6.0417                 6.1520                 6.1982
 IR Inten    --      0.0648                25.0057                 0.3058

                     55                     56                     57
                      A                      A                      A
 Frequencies --   3090.2784              3093.6974              3096.6674
 Red. masses --      1.1017                 1.1014                 1.1007
 Frc consts  --      6.1987                 6.2109                 6.2189
 IR Inten    --      0.7531                29.8873                27.8203

                     58                     59                     60
                      A                      A                      A
 Frequencies --   3097.2079              3100.0404              3508.5311
 Red. masses --      1.1005                 1.0998                 1.1617
 Frc consts  --      6.2200                 6.2271                 8.4258
 IR Inten    --     75.8312                70.2948                69.3782

 - Thermochemistry -
 -------------------
 Temperature   298.150 Kelvin.  Pressure   1.00000 Atm.
 Atom     1 has atomic number  6 and mass  12.00000

 Molecular mass:   110.10955 amu.
 Principal axes and moments of inertia in atomic units:
                           1         2         3
     Eigenvalues --   453.343861886.895421919.53331
           X            1.00000   0.00030   0.00000
           Y           -0.00030   1.00000   0.00006
           Z           -0.00000  -0.00006   1.00000
 This molecule is an asymmetric top.
 Rotational symmetry number  1.
 Warning -- assumption of classical behavior for rotation
           may cause significant error
 Rotational temperatures (Kelvin)      0.19106     0.04590     0.04512
 Rotational constants (GHZ):           3.98095     0.95646     0.94020
 Zero-point vibrational energy     516792.1 (Joules/Mol)
                                  123.51627 (Kcal/Mol)
 Warning -- explicit consideration of  15 degrees of freedom as
           vibrations may cause significant error
 Vibrational temperatures:     78.86   141.24   177.19   320.62   338.98
          (Kelvin)            381.19   387.30   472.63   475.69   502.14
                              552.35   596.96   678.35   746.90   884.16
                              910.40  1082.71  1098.71  1315.92  1341.00
                             1351.81  1378.81  1380.42  1397.43  1475.20
                             1532.17  1553.63  1692.55  1754.68  1827.39
                             1831.54  1877.97  1927.16  1988.21  2014.13
                             2015.00  2061.11  2116.09  2130.79  2136.75
                             2138.86  2145.30  2169.80  2172.01  2184.89
                             3220.19  4347.19  4348.24  4350.59  4363.30
                             4365.06  4392.14  4424.77  4445.92  4446.22
                             4451.14  4455.41  4456.19  4460.27  5047.99

 Zero-point correction=                           0.196836 (Hartree/Particle)
 Thermal correction to Energy=                    0.207079
 Thermal correction to Enthalpy=                  0.208023
 Thermal correction to Gibbs Free Energy=         0.162105
 Sum of electronic and zero-point Energies=           -313.051122
 Sum of electronic and thermal Energies=              -313.040879
 Sum of electronic and thermal Enthalpies=            -313.039935
 Sum of electronic and thermal Free Energies=         -313.085852

                     E (Thermal)             CV                S
                      KCal/Mol        Cal/Mol-Kelvin    Cal/Mol-Kelvin
 Total                  129.944             38.217             96.641
 Electronic               0.000              0.000              0.000
 Translational            0.889              2.981             40.005
 Rotational               0.889              2.981             28.886
 Vibrational            128.166             32.255             27.750
 Vibration     1          0.596              1.976              4.636
 Vibration     2          0.604              1.950              3.490
 Vibration     3          0.610              1.930              3.050
 Vibration     4          0.649              1.806              1.936
 Vibration     5          0.655              1.786              1.836
 Vibration     6          0.671              1.737              1.629
 Vibration     7          0.674              1.730              1.601
 Vibration     8          0.712              1.619              1.267
 Vibration     9          0.713              1.614              1.257
 Vibration    10          0.726              1.577              1.171
 Vibration    11          0.753              1.505              1.024
 Vibration    12          0.778              1.438              0.909
 Vibration    13          0.828              1.313              0.733
 Vibration    14          0.874              1.208              0.612
 Vibration    15          0.974              1.001              0.425

 Optimization completed.
    -- Stationary point found.
 Normal termination of Gaussian 16 at Mon May 15 15:56:46 2023.
