 Gaussian 16, Revision A.03,
 Gaussian 16:  ES64L-G16RevA.03 25-Dec-2016

 -----------------------------
 # opt freq b3lyp/6-31g(2df,p)
 -----------------------------

 -------------------
 Title Card Required
 -------------------
 Symbolic Z-matrix:
 Charge =  0 Multiplicity = 1

 SCF Done:  E(RB3LYP) =  -481.771437879     A.U. after   11 cycles
 SCF Done:  E(RB3LYP) =  -481.776659254     A.U. after   10 cycles
 SCF Done:  E(RB3LYP) =  -481.777164114     A.U. after    8 cycles
 SCF Done:  E(RB3LYP) =  -481.777220878     A.U. after    8 cycles
 SCF Done:  E(RB3LYP) =  -481.777236065     A.U. after    8 cycles
 SCF Done:  E(RB3LYP) =  -481.777239984     A.U. after    7 cycles
 SCF Done:  E(RB3LYP) =  -481.777241095     A.U. after    7 cycles
 SCF Done:  E(RB3LYP) =  -481.777241234     A.U. after    6 cycles
 SCF Done:  E(RB3LYP) =  -481.777241256     A.U. after    5 cycles
 Optimization completed.
    -- Stationary point found.
 Normal termination of Gaussian 16 at Mon May 15 23:12:47 2023.

 ----------------------------------------------------------------------
 #N Geom=AllCheck Guess=TCheck SCRF=Check GenChk RB3LYP/6-31G(2df,p) Fr
 eq
 ----------------------------------------------------------------------

 Structure from the checkpoint file:  "NCCCCNCCCCN.chk"
 -------------------
 Title Card Required
 -------------------
 Charge =  0 Multiplicity = 1

                         Standard orientation:
 ---------------------------------------------------------------------
 Center     Atomic      Atomic             Coordinates (Angstroms)
 Number     Number       Type             X           Y           Z
 ---------------------------------------------------------------------
      1          7           0       -6.234667   -0.297539   -0.062978
      2          6           0       -5.017613    0.518619    0.003542
      3          6           0       -3.772116   -0.367268   -0.031981
      4          6           0       -2.465122    0.429627   -0.005023
      5          6           0       -1.220975   -0.458243   -0.025265
      6          7           0        0.000000    0.338654   -0.039846
      7          6           0        1.220975   -0.458243   -0.025265
      8          6           0        2.465122    0.429627   -0.005022
      9          6           0        3.772116   -0.367268   -0.031981
     10          6           0        5.017613    0.518619    0.003542
     11          7           0        6.234667   -0.297539   -0.062978
     12          1           0       -7.053468    0.303391   -0.072528
     13          1           0       -6.312627   -0.859283    0.780826
     14          1           0       -4.967150    1.174555    0.891656
     15          1           0       -5.013725    1.182028   -0.870583
     16          1           0       -3.816677   -0.994368   -0.930502
     17          1           0       -3.799013   -1.056552    0.824661
     18          1           0       -2.440803    1.062249    0.894552
     19          1           0       -2.420682    1.112962   -0.861818
     20          1           0       -1.228759   -1.076643   -0.933225
     21          1           0       -1.259805   -1.166437    0.826567
     22          1           0        0.000000    0.958358    0.766130
     23          1           0        1.228759   -1.076643   -0.933225
     24          1           0        1.259805   -1.166437    0.826567
     25          1           0        2.440803    1.062249    0.894552
     26          1           0        2.420681    1.112962   -0.861818
     27          1           0        3.816677   -0.994368   -0.930502
     28          1           0        3.799013   -1.056552    0.824661
     29          1           0        4.967150    1.174555    0.891656
     30          1           0        5.013725    1.182028   -0.870583
     31          1           0        6.312627   -0.859283    0.780826
     32          1           0        7.053468    0.303391   -0.072529
 ---------------------------------------------------------------------

 SCF Done:  E(RB3LYP) =  -481.777241256     A.U. after    1 cycles

 The electronic state is 1-A.
 Alpha  occ. eigenvalues --  -14.30343 -14.30218 -14.30218 -10.19900 -10.19900
 Alpha  occ. eigenvalues --  -10.19621 -10.19620 -10.17425 -10.17425 -10.17308
 Alpha  occ. eigenvalues --  -10.17308  -0.89545  -0.87240  -0.87211  -0.78483
 Alpha  occ. eigenvalues --   -0.76443  -0.70400  -0.66593  -0.60665  -0.59693
 Alpha  occ. eigenvalues --   -0.57992  -0.57136  -0.48672  -0.48263  -0.47599
 Alpha  occ. eigenvalues --   -0.46422  -0.45657  -0.44054  -0.42672  -0.42273
 Alpha  occ. eigenvalues --   -0.41946  -0.40243  -0.37033  -0.36313  -0.35625
 Alpha  occ. eigenvalues --   -0.35017  -0.34362  -0.33400  -0.32933  -0.32326
 Alpha  occ. eigenvalues --   -0.31863  -0.30921  -0.23105  -0.23075  -0.21450
 Alpha virt. eigenvalues --    0.08459   0.08597   0.08971   0.10429   0.10923
 Alpha virt. eigenvalues --    0.11765   0.12664   0.12705   0.14007   0.15779
 Alpha virt. eigenvalues --    0.15914   0.16755   0.17378   0.17508   0.19186

 Mulliken charges:
               1
     1  N   -0.509345
     2  C   -0.147594
     3  C   -0.151766
     4  C   -0.197486
     5  C   -0.120087
     6  N   -0.299189
     7  C   -0.120087
     8  C   -0.197486
     9  C   -0.151766
    10  C   -0.147594
    11  N   -0.509345
    12  H    0.223402
    13  H    0.220197
    14  H    0.073976
    15  H    0.101850
    16  H    0.107629
    17  H    0.085442
    18  H    0.084615
    19  H    0.106335
    20  H    0.100620
    21  H    0.069308
    22  H    0.205001
    23  H    0.100620
    24  H    0.069308
    25  H    0.084615
    26  H    0.106335
    27  H    0.107629
    28  H    0.085442
    29  H    0.073976
    30  H    0.101850
    31  H    0.220197
    32  H    0.223402
 Sum of Mulliken charges =   0.00000

 Dipole moment (field-independent basis, Debye):
    X=              0.0000    Y=              1.0248    Z=              2.6332  Tot=              2.8256
 Quadrupole moment (field-independent basis, Debye-Ang):
   XX=            -64.8358   YY=            -72.6265   ZZ=            -70.9916
   XY=              0.0000   XZ=             -0.0000   YZ=             -1.4931

  Exact polarizability: 151.986  -0.000  99.043  -0.000  -1.560  92.672
 Approx polarizability: 156.495  -0.000 149.755  -0.000  -2.342 145.840

                      1                      2                      3
                      A                      A                      A
 Frequencies --     25.8327                43.2906                50.7765
 Red. masses --      4.3429                 4.3453                 1.6605
 Frc consts  --      0.0017                 0.0048                 0.0025
 IR Inten    --      0.0269                 0.0831                 0.0929

                      4                      5                      6
                      A                      A                      A
 Frequencies --     70.5231                98.3487               114.9191
 Red. masses --      3.1618                 1.7161                 3.5903
 Frc consts  --      0.0093                 0.0098                 0.0279
 IR Inten    --      0.2742                 3.9303                 0.1759

                      7                      8                      9
                      A                      A                      A
 Frequencies --    115.8997               139.9666               163.0554
 Red. masses --      3.0043                 1.7988                 2.2977
 Frc consts  --      0.0238                 0.0208                 0.0360
 IR Inten    --      0.0661                 0.4501                 3.8757

                     10                     11                     12
                      A                      A                      A
 Frequencies --    174.9816               198.6019               220.1908
 Red. masses --      2.2047                 3.3540                 3.7474
 Frc consts  --      0.0398                 0.0779                 0.1070
 IR Inten    --      3.1085                 1.7818                 0.0533

                     13                     14                     15
                      A                      A                      A
 Frequencies --    253.5944               263.4738               338.6973
 Red. masses --      1.1326                 1.2059                 3.0297
 Frc consts  --      0.0429                 0.0493                 0.2048
 IR Inten    --     30.4178                43.9424                 8.7686

                     16                     17                     18
                      A                      A                      A
 Frequencies --    383.0232               437.6884               513.3272
 Red. masses --      4.5214                 3.1129                 3.2948
 Frc consts  --      0.3908                 0.3514                 0.5115
 IR Inten    --      4.1453                 2.1230                 1.7800

                     19                     20                     21
                      A                      A                      A
 Frequencies --    536.9907               748.3815               748.9652
 Red. masses --      3.1651                 1.0711                 1.0789
 Frc consts  --      0.5377                 0.3535                 0.3566
 IR Inten    --     13.9451                 0.0194                 4.1855

                     22                     23                     24
                      A                      A                      A
 Frequencies --    782.8719               799.2906               809.0192
 Red. masses --      1.1961                 1.1278                 1.1839
 Frc consts  --      0.4319                 0.4245                 0.4565
 IR Inten    --     66.5257                 4.0742                12.3588

                     25                     26                     27
                      A                      A                      A
 Frequencies --    863.2900               867.5828               937.7707
 Red. masses --      1.2608                 1.2813                 1.2642
 Frc consts  --      0.5536                 0.5682                 0.6550
 IR Inten    --     61.9303               166.8177                15.9407

                     28                     29                     30
                      A                      A                      A
 Frequencies --    943.0807               971.4482               982.9863
 Red. masses --      1.5018                 2.9345                 1.9496
 Frc consts  --      0.7870                 1.6316                 1.1099
 IR Inten    --     10.0026                 7.0870                 8.3136

                     31                     32                     33
                      A                      A                      A
 Frequencies --   1025.4821              1032.6432              1056.6598
 Red. masses --      3.4550                 2.7322                 2.5170
 Frc consts  --      2.1407                 1.7166                 1.6558
 IR Inten    --      2.1159                 1.5350                 0.6830

                     34                     35                     36
                      A                      A                      A
 Frequencies --   1070.2694              1076.5601              1088.2348
 Red. masses --      2.3403                 2.0441                 2.5360
 Frc consts  --      1.5795                 1.3958                 1.7695
 IR Inten    --      3.1800                 3.3877                 8.0823

                     37                     38                     39
                      A                      A                      A
 Frequencies --   1102.6046              1120.6749              1154.3912
 Red. masses --      2.3096                 1.4328                 2.7989
 Frc consts  --      1.6543                 1.0602                 2.1976
 IR Inten    --      1.9382                 9.7941                66.8373

                     40                     41                     42
                      A                      A                      A
 Frequencies --   1159.9086              1164.5829              1216.4417
 Red. masses --      1.5733                 1.9126                 1.6701
 Frc consts  --      1.2471                 1.5283                 1.4560
 IR Inten    --      6.5827                 9.8952                 2.6241

                     43                     44                     45
                      A                      A                      A
 Frequencies --   1231.3866              1268.5217              1273.8513
 Red. masses --      1.3548                 1.4514                 1.3072
 Frc consts  --      1.2104                 1.3760                 1.2498
 IR Inten    --      0.9742                 3.4263                11.4529

                     46                     47                     48
                      A                      A                      A
 Frequencies --   1284.4873              1302.0676              1319.1819
 Red. masses --      1.3489                 1.2888                 1.0462
 Frc consts  --      1.3112                 1.2874                 1.0727
 IR Inten    --      2.8654                 0.2695                 4.4488

                     49                     50                     51
                      A                      A                      A
 Frequencies --   1320.1230              1326.1310              1333.7679
 Red. masses --      1.0395                 1.2268                 1.1272
 Frc consts  --      1.0673                 1.2712                 1.1814
 IR Inten    --      0.5037                 0.0059                 0.0441

                     52                     53                     54
                      A                      A                      A
 Frequencies --   1336.8354              1360.1530              1377.5671
 Red. masses --      1.1616                 1.3191                 1.4441
 Frc consts  --      1.2231                 1.4378                 1.6146
 IR Inten    --      0.6465                 8.8042                 0.0874

                     55                     56                     57
                      A                      A                      A
 Frequencies --   1398.9694              1429.6219              1431.8549
 Red. masses --      1.5619                 1.5772                 1.4810
 Frc consts  --      1.8010                 1.8992                 1.7890
 IR Inten    --     17.7557                 0.9063                31.9939

                     58                     59                     60
                      A                      A                      A
 Frequencies --   1433.3358              1486.5337              1487.3290
 Red. masses --      1.4575                 1.0739                 1.0754
 Frc consts  --      1.7642                 1.3982                 1.4017
 IR Inten    --      0.5701                 0.4973                 0.1177

                     61                     62                     63
                      A                      A                      A
 Frequencies --   1492.3310              1495.9886              1497.0926
 Red. masses --      1.2097                 1.1056                 1.0864
 Frc consts  --      1.5873                 1.4578                 1.4346
 IR Inten    --     20.7236                21.2851                 1.6213

                     64                     65                     66
                      A                      A                      A
 Frequencies --   1512.8654              1518.3912              1521.3195
 Red. masses --      1.0884                 1.0905                 1.0946
 Frc consts  --      1.4677                 1.4812                 1.4926
 IR Inten    --      2.0518                 0.0405                 5.7265

                     67                     68                     69
                      A                      A                      A
 Frequencies --   1528.2804              1658.9218              1658.9401
 Red. masses --      1.0924                 1.0889                 1.0889
 Frc consts  --      1.5033                 1.7656                 1.7656
 IR Inten    --      0.3440                20.0132                23.5562

                     70                     71                     72
                      A                      A                      A
 Frequencies --   2896.6490              2902.7503              2930.9283
 Red. masses --      1.0731                 1.0731                 1.0727
 Frc consts  --      5.3051                 5.3275                 5.4295
 IR Inten    --     17.9478               131.6988                 6.8031

                     73                     74                     75
                      A                      A                      A
 Frequencies --   2931.0001              2999.7282              3000.4254
 Red. masses --      1.0728                 1.0667                 1.0668
 Frc consts  --      5.4298                 5.6553                 5.6584
 IR Inten    --    139.3457                 0.0968                35.4365

                     76                     77                     78
                      A                      A                      A
 Frequencies --   3002.9481              3003.0668              3023.1442
 Red. masses --      1.0671                 1.0671                 1.0832
 Frc consts  --      5.6695                 5.6702                 5.8327
 IR Inten    --      1.1250                39.3160                 0.7764

                     79                     80                     81
                      A                      A                      A
 Frequencies --   3026.6082              3038.5521              3038.6692
 Red. masses --      1.0816                 1.0835                 1.0833
 Frc consts  --      5.8374                 5.8939                 5.8936
 IR Inten    --     62.9683                 0.0896                72.3622

                     82                     83                     84
                      A                      A                      A
 Frequencies --   3050.4557              3050.5121              3071.4860
 Red. masses --      1.0925                 1.0923                 1.1011
 Frc consts  --      5.9899                 5.9887                 6.1205
 IR Inten    --      0.0080                10.0043                 0.0544

                     85                     86                     87
                      A                      A                      A
 Frequencies --   3071.7807              3482.4796              3482.4804
 Red. masses --      1.1010                 1.0496                 1.0496
 Frc consts  --      6.1209                 7.4998                 7.4998
 IR Inten    --    167.6624                 0.8058                 2.0629

                     88                     89                     90
                      A                      A                      A
 Frequencies --   3490.6837              3560.2200              3560.2263
 Red. masses --      1.0731                 1.0916                 1.0916
 Frc consts  --      7.7036                 8.1523                 8.1523
 IR Inten    --      0.9807                 0.4558                 0.0192

 - Thermochemistry -
 -------------------
 Temperature   298.150 Kelvin.  Pressure   1.00000 Atm.
 Atom     1 has atomic number  7 and mass  14.00307

 Molecular mass:   159.17355 amu.
 Principal axes and moments of inertia in atomic units:
                           1         2         3
     Eigenvalues --   214.295229284.635939395.61072
           X            1.00000   0.00000  -0.00000
           Y           -0.00000   0.99990  -0.01406
           Z            0.00000   0.01406   0.99990
 This molecule is an asymmetric top.
 Rotational symmetry number  1.
 Rotational temperatures (Kelvin)      0.40418     0.00933     0.00922
 Rotational constants (GHZ):           8.42175     0.19438     0.19208
 Zero-point vibrational energy     782160.1 (Joules/Mol)
                                  186.94076 (Kcal/Mol)
 Warning -- explicit consideration of  19 degrees of freedom as
           vibrations may cause significant error
 Vibrational temperatures:     37.17    62.29    73.06   101.47   141.50
          (Kelvin)            165.34   166.75   201.38   234.60   251.76
                              285.74   316.81   364.87   379.08   487.31
                              551.08   629.74   738.56   772.61  1076.75
                             1077.59  1126.38  1150.00  1164.00  1242.08
                             1248.26  1349.24  1356.88  1397.70  1414.30
                             1475.44  1485.74  1520.30  1539.88  1548.93
                             1565.73  1586.40  1612.40  1660.91  1668.85
                             1675.58  1750.19  1771.69  1825.12  1832.79
                             1848.09  1873.38  1898.01  1899.36  1908.01
                             1918.99  1923.41  1956.96  1982.01  2012.80
                             2056.91  2060.12  2062.25  2138.79  2139.93
                             2147.13  2152.39  2153.98  2176.68  2184.63
                             2188.84  2198.85  2386.82  2386.84  4167.63
                             4176.41  4216.95  4217.06  4315.94  4316.94
                             4320.57  4320.74  4349.63  4354.61  4371.80
                             4371.97  4388.93  4389.01  4419.18  4419.61
                             5010.51  5010.51  5022.32  5122.36  5122.37

 Zero-point correction=                           0.297909 (Hartree/Particle)
 Thermal correction to Energy=                    0.312792
 Thermal correction to Enthalpy=                  0.313736
 Thermal correction to Gibbs Free Energy=         0.254359
 Sum of electronic and zero-point Energies=           -481.479332
 Sum of electronic and thermal Energies=              -481.464449
 Sum of electronic and thermal Enthalpies=            -481.463505
 Sum of electronic and thermal Free Energies=         -481.522883

                     E (Thermal)             CV                S
                      KCal/Mol        Cal/Mol-Kelvin    Cal/Mol-Kelvin
 Total                  196.280             51.855            124.971
 Electronic               0.000              0.000              0.000
 Translational            0.889              2.981             41.104
 Rotational               0.889              2.981             31.303
 Vibrational            194.503             45.893             52.564
 Vibration     1          0.593              1.985              6.126
 Vibration     2          0.595              1.980              5.103
 Vibration     3          0.595              1.977              4.787
 Vibration     4          0.598              1.968              4.139
 Vibration     5          0.604              1.950              3.487
 Vibration     6          0.608              1.937              3.184
 Vibration     7          0.608              1.936              3.168
 Vibration     8          0.615              1.913              2.804
 Vibration     9          0.623              1.888              2.514
 Vibration    10          0.627              1.873              2.381
 Vibration    11          0.637              1.842              2.146
 Vibration    12          0.647              1.810              1.958
 Vibration    13          0.665              1.757              1.705
 Vibration    14          0.670              1.740              1.639
 Vibration    15          0.719              1.598              1.218
 Vibration    16          0.752              1.506              1.027
 Vibration    17          0.798              1.388              0.834
 Vibration    18          0.868              1.220              0.626
 Vibration    19          0.892              1.168              0.572

 Optimization completed.
    -- Stationary point found.
 Normal termination of Gaussian 16 at Tue May 16 00:15:40 2023.
