 Gaussian 16, Revision A.03,
 Gaussian 16:  ES64L-G16RevA.03 25-Dec-2016

 -----------------------------
 # opt freq b3lyp/6-31g(2df,p)
 -----------------------------

 -------------------
 Title Card Required
 -------------------
 Symbolic Z-matrix:
 Charge =  0 Multiplicity = 1

 SCF Done:  E(RB3LYP) =  -687.317286188     A.U. after   14 cycles
 SCF Done:  E(RB3LYP) =  -687.323370811     A.U. after   13 cycles
 SCF Done:  E(RB3LYP) =  -687.325116162     A.U. after   12 cycles
 SCF Done:  E(RB3LYP) =  -687.326321851     A.U. after   12 cycles
 SCF Done:  E(RB3LYP) =  -687.326939117     A.U. after   12 cycles
 SCF Done:  E(RB3LYP) =  -687.327358639     A.U. after   12 cycles
 SCF Done:  E(RB3LYP) =  -687.327579576     A.U. after   12 cycles
 SCF Done:  E(RB3LYP) =  -687.327702600     A.U. after   11 cycles
 SCF Done:  E(RB3LYP) =  -687.327727784     A.U. after   11 cycles
 SCF Done:  E(RB3LYP) =  -687.327740338     A.U. after   10 cycles
 SCF Done:  E(RB3LYP) =  -687.327763326     A.U. after   10 cycles
 SCF Done:  E(RB3LYP) =  -687.327765404     A.U. after   10 cycles
 SCF Done:  E(RB3LYP) =  -687.327766379     A.U. after    8 cycles
 SCF Done:  E(RB3LYP) =  -687.327766698     A.U. after    8 cycles
 SCF Done:  E(RB3LYP) =  -687.327767128     A.U. after    7 cycles
 SCF Done:  E(RB3LYP) =  -687.327767339     A.U. after    7 cycles
 SCF Done:  E(RB3LYP) =  -687.327767385     A.U. after    7 cycles
 SCF Done:  E(RB3LYP) =  -687.327767413     A.U. after    7 cycles
 SCF Done:  E(RB3LYP) =  -687.327767420     A.U. after    7 cycles
 Optimization completed.
    -- Stationary point found.
 Normal termination of Gaussian 16 at Mon May 15 23:02:43 2023.

 ----------------------------------------------------------------------
 #N Geom=AllCheck Guess=TCheck SCRF=Check GenChk RB3LYP/6-31G(2df,p) Fr
 eq
 ----------------------------------------------------------------------

 Structure from the checkpoint file:  "OCdNNqc1ccccc1rc1ccccc1.chk"
 -------------------
 Title Card Required
 -------------------
 Charge =  0 Multiplicity = 1

                         Standard orientation:
 ---------------------------------------------------------------------
 Center     Atomic      Atomic             Coordinates (Angstroms)
 Number     Number       Type             X           Y           Z
 ---------------------------------------------------------------------
      1          8           0       -1.204040    3.820356    0.000182
      2          6           0       -1.163223    2.460397    0.000127
      3          7           0       -0.023903    1.905059   -0.000042
      4          7           0        0.096070    0.540213   -0.000099
      5          6           0       -1.062609   -0.297714   -0.000057
      6          6           0       -1.639411   -0.693540    1.208669
      7          6           0       -2.782979   -1.488605    1.206773
      8          6           0       -3.355424   -1.886291   -0.000008
      9          6           0       -2.783181   -1.488411   -1.206804
     10          6           0       -1.639593   -0.693348   -1.208746
     11          6           0        1.396678    0.013723   -0.000064
     12          6           0        1.599925   -1.375296    0.000072
     13          6           0        2.890262   -1.894663    0.000119
     14          6           0        4.000793   -1.056148    0.000030
     15          6           0        3.796262    0.322565   -0.000107
     16          6           0        2.516158    0.861407   -0.000158
     17          1           0       -2.124634    4.096955    0.000325
     18          1           0       -2.125089    1.946531    0.000248
     19          1           0       -1.179354   -0.380270    2.139460
     20          1           0       -3.224244   -1.800186    2.147613
     21          1           0       -4.244806   -2.507451    0.000029
     22          1           0       -3.224581   -1.799817   -2.147639
     23          1           0       -1.179679   -0.379972   -2.139569
     24          1           0        0.752371   -2.048859    0.000125
     25          1           0        3.020972   -2.972361    0.000243
     26          1           0        5.004141   -1.466870    0.000065
     27          1           0        4.647098    0.997019   -0.000190
     28          1           0        2.363012    1.931065   -0.000244
 ---------------------------------------------------------------------

 SCF Done:  E(RB3LYP) =  -687.327767420     A.U. after    1 cycles

 The electronic state is 1-A.
 Alpha  occ. eigenvalues --  -19.17476 -14.37837 -14.34844 -10.26326 -10.23016
 Alpha  occ. eigenvalues --  -10.21388 -10.20130 -10.20096 -10.20053 -10.19969
 Alpha  occ. eigenvalues --  -10.19969 -10.17050 -10.16874 -10.16650 -10.16096
 Alpha  occ. eigenvalues --  -10.16056  -1.06977  -1.00849  -0.87367  -0.85274
 Alpha  occ. eigenvalues --   -0.81528  -0.75898  -0.75866  -0.72665  -0.70809
 Alpha  occ. eigenvalues --   -0.64326  -0.62022  -0.61227  -0.58501  -0.56651
 Alpha  occ. eigenvalues --   -0.55482  -0.53742  -0.50849  -0.50047  -0.47431
 Alpha  occ. eigenvalues --   -0.46618  -0.44843  -0.43290  -0.42348  -0.42011
 Alpha  occ. eigenvalues --   -0.41956  -0.40099  -0.39083  -0.37750  -0.37317
 Alpha  occ. eigenvalues --   -0.37192  -0.35495  -0.34142  -0.32753  -0.32506
 Alpha  occ. eigenvalues --   -0.28076  -0.26749  -0.26114  -0.25331  -0.23339
 Alpha  occ. eigenvalues --   -0.17708
 Alpha virt. eigenvalues --   -0.01973  -0.01692   0.01076   0.02039   0.04982
 Alpha virt. eigenvalues --    0.05957   0.08377   0.11187   0.13399   0.13560
 Alpha virt. eigenvalues --    0.13906   0.14529   0.15983   0.16817   0.17106

 Mulliken charges:
               1
     1  O   -0.370340
     2  C    0.059863
     3  N   -0.168893
     4  N   -0.174870
     5  C    0.234040
     6  C   -0.161543
     7  C   -0.093049
     8  C   -0.111426
     9  C   -0.093046
    10  C   -0.161546
    11  C    0.373364
    12  C   -0.228143
    13  C   -0.092899
    14  C   -0.137028
    15  C   -0.091436
    16  C   -0.204924
    17  H    0.303387
    18  H    0.104834
    19  H    0.114909
    20  H    0.105144
    21  H    0.104019
    22  H    0.105143
    23  H    0.114909
    24  H    0.095397
    25  H    0.085933
    26  H    0.083213
    27  H    0.088234
    28  H    0.116758
 Sum of Mulliken charges =  -0.00000

 Dipole moment (field-independent basis, Debye):
    X=             -4.6120    Y=             -0.6585    Z=              0.0004  Tot=              4.6588
 Quadrupole moment (field-independent basis, Debye-Ang):
   XX=            -80.1112   YY=            -88.4109   ZZ=            -89.8465
   XY=             -4.5580   XZ=             -0.0006   YZ=              0.0003

  Exact polarizability: 211.145  -1.179 163.695   0.000  -0.004 102.981
 Approx polarizability: 310.239   1.105 264.474  -0.000  -0.011 183.163

                      1                      2                      3
                      A                      A                      A
 Frequencies --      9.6411                35.6971                54.5249
 Red. masses --      4.1468                 4.8469                 4.1726
 Frc consts  --      0.0002                 0.0036                 0.0073
 IR Inten    --      0.5861                 0.0012                 0.0569

                      4                      5                      6
                      A                      A                      A
 Frequencies --     70.7833               119.1837               154.6345
 Red. masses --      5.0940                 5.6751                 2.3319
 Frc consts  --      0.0150                 0.0475                 0.0329
 IR Inten    --      0.0741                 1.0153                43.4474

                      7                      8                      9
                      A                      A                      A
 Frequencies --    203.0693               232.8282               257.0404
 Red. masses --      4.3084                 2.6637                 4.3263
 Frc consts  --      0.1047                 0.0851                 0.1684
 IR Inten    --      2.0305                33.5936                 0.1859

                     10                     11                     12
                      A                      A                      A
 Frequencies --    307.5779               335.1279               373.1340
 Red. masses --      5.9421                 1.7253                 5.5004
 Frc consts  --      0.3312                 0.1142                 0.4512
 IR Inten    --      1.5272                33.0781                 2.5281

                     13                     14                     15
                      A                      A                      A
 Frequencies --    386.9212               419.4568               422.4993
 Red. masses --      5.5814                 3.1657                 3.1165
 Frc consts  --      0.4923                 0.3282                 0.3278
 IR Inten    --     12.5225                 0.0138                 0.0328

                     16                     17                     18
                      A                      A                      A
 Frequencies --    427.2673               517.8902               537.5535
 Red. masses --      5.0015                 3.1414                 3.9073
 Frc consts  --      0.5380                 0.4964                 0.6652
 IR Inten    --      0.1257                 4.0243                 1.8566

                     19                     20                     21
                      A                      A                      A
 Frequencies --    627.0720               628.1979               631.1878
 Red. masses --      6.2992                 6.4944                 6.5816
 Frc consts  --      1.4594                 1.5100                 1.5449
 IR Inten    --      1.2154                 0.0609                11.2720

                     22                     23                     24
                      A                      A                      A
 Frequencies --    660.7619               711.2568               720.0402
 Red. masses --      5.8577                 2.1899                 1.7695
 Frc consts  --      1.5068                 0.6527                 0.5405
 IR Inten    --     49.2514                11.1932                33.8432

                     25                     26                     27
                      A                      A                      A
 Frequencies --    761.2637               768.1021               812.0662
 Red. masses --      3.4346                 1.6175                 2.5980
 Frc consts  --      1.1727                 0.5622                 1.0094
 IR Inten    --     26.7852                38.8113                 4.5169

                     28                     29                     30
                      A                      A                      A
 Frequencies --    842.1784               866.7524               890.9209
 Red. masses --      1.2585                 1.2447                 1.4541
 Frc consts  --      0.5259                 0.5509                 0.6800
 IR Inten    --      0.0904                 0.0092                 4.0223

                     31                     32                     33
                      A                      A                      A
 Frequencies --    902.2842               929.9513               948.1231
 Red. masses --      1.4964                 2.1585                 1.2965
 Frc consts  --      0.7177                 1.0998                 0.6867
 IR Inten    --      6.1196                 3.1094                 0.1462

                     34                     35                     36
                      A                      A                      A
 Frequencies --    961.9204               963.9253               978.9131
 Red. masses --      2.5182                 1.3414                 1.2300
 Frc consts  --      1.3728                 0.7344                 0.6945
 IR Inten    --     18.5418                 0.0110                 0.6239

                     37                     38                     39
                      A                      A                      A
 Frequencies --    996.1427              1003.8748              1016.5381
 Red. masses --      1.2717                 5.6146                 6.3037
 Frc consts  --      0.7435                 3.3337                 3.8379
 IR Inten    --      1.4299                 4.6047                 1.7660

                     40                     41                     42
                      A                      A                      A
 Frequencies --   1045.5980              1052.2772              1084.4356
 Red. masses --      2.3458                 2.1202                 2.6403
 Frc consts  --      1.5110                 1.3832                 1.8294
 IR Inten    --      2.7880                 2.2154                58.4410

                     43                     44                     45
                      A                      A                      A
 Frequencies --   1094.4985              1117.1711              1179.0682
 Red. masses --      1.5234                 1.6855                 1.1025
 Frc consts  --      1.0752                 1.2394                 0.9030
 IR Inten    --      4.5241                12.0746                 0.6716

                     46                     47                     48
                      A                      A                      A
 Frequencies --   1182.2339              1188.9497              1196.1492
 Red. masses --      1.0948                 1.3103                 1.5728
 Frc consts  --      0.9016                 1.0913                 1.3258
 IR Inten    --      0.0046                 9.0772                39.5723

                     49                     50                     51
                      A                      A                      A
 Frequencies --   1205.4497              1243.1731              1307.4587
 Red. masses --      1.4032                 3.4148                 1.5632
 Frc consts  --      1.2014                 3.1094                 1.5744
 IR Inten    --     68.0029               229.9421               145.4330

                     52                     53                     54
                      A                      A                      A
 Frequencies --   1312.9229              1338.2769              1339.0733
 Red. masses --      2.7133                 3.6972                 2.0159
 Frc consts  --      2.7556                 3.9014                 2.1298
 IR Inten    --      0.6394                52.3231                 0.9915

                     55                     56                     57
                      A                      A                      A
 Frequencies --   1346.5197              1356.7356              1423.2751
 Red. masses --      3.0037                 1.6866                 1.7059
 Frc consts  --      3.2087                 1.8292                 2.0360
 IR Inten    --     99.7114                 5.2004                63.0016

                     58                     59                     60
                      A                      A                      A
 Frequencies --   1475.6296              1488.6078              1522.1855
 Red. masses --      2.1973                 2.4150                 2.2798
 Frc consts  --      2.8190                 3.1530                 3.1122
 IR Inten    --      4.3737                 6.7353                15.8716

                     61                     62                     63
                      A                      A                      A
 Frequencies --   1528.8584              1616.3486              1619.8423
 Red. masses --      2.4594                 6.0985                 5.8349
 Frc consts  --      3.3869                 9.3874                 9.0204
 IR Inten    --    221.3384                 3.5692                 2.8821

                     64                     65                     66
                      A                      A                      A
 Frequencies --   1632.1441              1644.1813              1752.3504
 Red. masses --      5.7511                 5.7930                 6.7330
 Frc consts  --      9.0265                 9.2269                12.1815
 IR Inten    --     50.7772               129.7765                50.5281

                     67                     68                     69
                      A                      A                      A
 Frequencies --   3108.5665              3166.2411              3172.8229
 Red. masses --      1.0887                 1.0841                 1.0843
 Frc consts  --      6.1983                 6.4032                 6.4311
 IR Inten    --     20.3965                 5.3201                 0.3644

                     70                     71                     72
                      A                      A                      A
 Frequencies --   3173.1431              3181.3888              3191.2500
 Red. masses --      1.0888                 1.0875                 1.0913
 Frc consts  --      6.4592                 6.4849                 6.5482
 IR Inten    --     19.9817                 5.4893                17.5900

                     73                     74                     75
                      A                      A                      A
 Frequencies --   3195.0910              3197.8204              3203.2472
 Red. masses --      1.0942                 1.0945                 1.0982
 Frc consts  --      6.5811                 6.5943                 6.6391
 IR Inten    --     33.0757                12.1347                 6.5542

                     76                     77                     78
                      A                      A                      A
 Frequencies --   3207.1870              3236.3059              3852.8618
 Red. masses --      1.0924                 1.0908                 1.0664
 Frc consts  --      6.6203                 6.7315                 9.3272
 IR Inten    --      7.4471                 0.9457               115.2671

 - Thermochemistry -
 -------------------
 Temperature   298.150 Kelvin.  Pressure   1.00000 Atm.
 Atom     1 has atomic number  8 and mass  15.99491

 Molecular mass:   212.09496 amu.
 Principal axes and moments of inertia in atomic units:
                           1         2         3
     Eigenvalues --  2504.000014413.590086285.23317
           X            1.00000   0.00306  -0.00000
           Y           -0.00306   1.00000  -0.00000
           Z            0.00000   0.00000   1.00000
 This molecule is an asymmetric top.
 Rotational symmetry number  1.
 Warning -- assumption of classical behavior for rotation
           may cause significant error
 Rotational temperatures (Kelvin)      0.03459     0.01962     0.01378
 Rotational constants (GHZ):           0.72074     0.40891     0.28714
 Zero-point vibrational energy     584170.3 (Joules/Mol)
                                  139.62005 (Kcal/Mol)
 Warning -- explicit consideration of  18 degrees of freedom as
           vibrations may cause significant error
 Vibrational temperatures:     13.87    51.36    78.45   101.84   171.48
          (Kelvin)            222.48   292.17   334.99   369.82   442.54
                              482.17   536.86   556.69   603.50   607.88
                              614.74   745.13   773.42   902.22   903.84
                              908.14   950.69  1023.34  1035.98  1095.29
                             1105.13  1168.38  1211.71  1247.06  1281.84
                             1298.19  1337.99  1364.14  1383.99  1386.87
                             1408.44  1433.23  1444.35  1462.57  1504.38
                             1513.99  1560.26  1574.74  1607.36  1696.42
                             1700.97  1710.63  1720.99  1734.37  1788.65
                             1881.14  1889.00  1925.48  1926.63  1937.34
                             1952.04  2047.78  2123.10  2141.77  2190.09
                             2199.69  2325.57  2330.59  2348.29  2365.61
                             2521.24  4472.53  4555.51  4564.98  4565.45
                             4577.31  4591.50  4597.02  4600.95  4608.76
                             4614.43  4656.32  5543.41

 Zero-point correction=                           0.222499 (Hartree/Particle)
 Thermal correction to Energy=                    0.236263
 Thermal correction to Enthalpy=                  0.237207
 Thermal correction to Gibbs Free Energy=         0.179290
 Sum of electronic and zero-point Energies=           -687.105269
 Sum of electronic and thermal Energies=              -687.091504
 Sum of electronic and thermal Enthalpies=            -687.090560
 Sum of electronic and thermal Free Energies=         -687.148478

                     E (Thermal)             CV                S
                      KCal/Mol        Cal/Mol-Kelvin    Cal/Mol-Kelvin
 Total                  148.257             53.018            121.898
 Electronic               0.000              0.000              0.000
 Translational            0.889              2.981             41.959
 Rotational               0.889              2.981             32.607
 Vibrational            146.480             47.056             47.331
 Vibration     1          0.593              1.987              8.084
 Vibration     2          0.594              1.982              5.485
 Vibration     3          0.596              1.976              4.646
 Vibration     4          0.598              1.968              4.131
 Vibration     5          0.609              1.933              3.114
 Vibration     6          0.620              1.898              2.614
 Vibration     7          0.639              1.836              2.105
 Vibration     8          0.654              1.791              1.857
 Vibration     9          0.667              1.751              1.682
 Vibration    10          0.697              1.659              1.375
 Vibration    11          0.716              1.605              1.235
 Vibration    12          0.745              1.527              1.067
 Vibration    13          0.755              1.498              1.012
 Vibration    14          0.782              1.428              0.894
 Vibration    15          0.785              1.421              0.884
 Vibration    16          0.789              1.411              0.868
 Vibration    17          0.873              1.210              0.615
 Vibration    18          0.893              1.167              0.571

 Optimization completed.
    -- Stationary point found.
 Normal termination of Gaussian 16 at Tue May 16 01:05:58 2023.
