 Gaussian 16, Revision A.03,
 Gaussian 16:  ES64L-G16RevA.03 25-Dec-2016

 -----------------------------
 # opt freq b3lyp/6-31g(2df,p)
 -----------------------------

 -------------------
 Title Card Required
 -------------------
 Symbolic Z-matrix:
 Charge =  0 Multiplicity = 1

 SCF Done:  E(RB3LYP) =  -782.229700357     A.U. after   14 cycles
 SCF Done:  E(RB3LYP) =  -782.235618966     A.U. after   14 cycles
 SCF Done:  E(RB3LYP) =  -782.236055567     A.U. after   12 cycles
 SCF Done:  E(RB3LYP) =  -782.235908097     A.U. after   13 cycles
 SCF Done:  E(RB3LYP) =  -782.236206891     A.U. after   12 cycles
 SCF Done:  E(RB3LYP) =  -782.236217890     A.U. after   11 cycles
 SCF Done:  E(RB3LYP) =  -782.236223325     A.U. after    9 cycles
 SCF Done:  E(RB3LYP) =  -782.236223765     A.U. after    8 cycles
 SCF Done:  E(RB3LYP) =  -782.236223887     A.U. after    8 cycles
 SCF Done:  E(RB3LYP) =  -782.236223898     A.U. after    7 cycles
 Optimization completed.
    -- Stationary point found.
 Normal termination of Gaussian 16 at Mon May 15 16:11:42 2023.

 ----------------------------------------------------------------------
 #N Geom=AllCheck Guess=TCheck SCRF=Check GenChk RB3LYP/6-31G(2df,p) Fr
 eq
 ----------------------------------------------------------------------

 Structure from the checkpoint file:  "OdC1CdCCqdOrCqc2cccc3cccnc23rdC1.chk"
 -------------------
 Title Card Required
 -------------------
 Charge =  0 Multiplicity = 1

                         Standard orientation:
 ---------------------------------------------------------------------
 Center     Atomic      Atomic             Coordinates (Angstroms)
 Number     Number       Type             X           Y           Z
 ---------------------------------------------------------------------
      1          8           0       -4.247538    0.867686   -1.516867
      2          6           0       -3.426656    0.365359   -0.767625
      3          6           0       -3.783918   -0.767827    0.121022
      4          6           0       -2.886573   -1.292262    0.962782
      5          6           0       -1.506576   -0.755128    1.074221
      6          8           0       -0.763445   -1.134476    1.957907
      7          6           0       -1.102629    0.318704    0.102699
      8          6           0        0.293469    0.808675    0.146949
      9          6           0        0.574777    2.123979    0.451161
     10          6           0        1.904510    2.596024    0.510061
     11          6           0        2.952797    1.747199    0.259206
     12          6           0        2.710057    0.392535   -0.076986
     13          6           0        3.744288   -0.527153   -0.373571
     14          6           0        3.423719   -1.814426   -0.718076
     15          6           0        2.058420   -2.179429   -0.775086
     16          7           0        1.065309   -1.362357   -0.506366
     17          6           0        1.367293   -0.087005   -0.142043
     18          6           0       -2.028828    0.847129   -0.717684
     19          1           0       -4.806277   -1.124607    0.048073
     20          1           0       -3.118462   -2.107818    1.640282
     21          1           0       -0.242155    2.802960    0.671444
     22          1           0        2.088465    3.634547    0.762753
     23          1           0        3.978215    2.100906    0.307280
     24          1           0        4.777859   -0.196821   -0.328049
     25          1           0        4.188358   -2.546300   -0.952393
     26          1           0        1.786187   -3.193742   -1.060922
     27          1           0       -1.786392    1.643449   -1.414411
 ---------------------------------------------------------------------

 SCF Done:  E(RB3LYP) =  -782.236223898     A.U. after    1 cycles

 The electronic state is 1-A.
 Alpha  occ. eigenvalues --  -19.14180 -19.13975 -14.33000 -10.28025 -10.27794
 Alpha  occ. eigenvalues --  -10.22954 -10.22730 -10.22336 -10.21518 -10.21400
 Alpha  occ. eigenvalues --  -10.21195 -10.20901 -10.20868 -10.20856 -10.20352
 Alpha  occ. eigenvalues --  -10.20279 -10.20189 -10.20114  -1.04929  -1.04511
 Alpha  occ. eigenvalues --   -0.95018  -0.86655  -0.84743  -0.81886  -0.78850
 Alpha  occ. eigenvalues --   -0.75953  -0.74352  -0.69240  -0.65355  -0.63979
 Alpha  occ. eigenvalues --   -0.63598  -0.60599  -0.57828  -0.53713  -0.52043
 Alpha  occ. eigenvalues --   -0.51541  -0.50353  -0.48990  -0.46869  -0.46306
 Alpha  occ. eigenvalues --   -0.45014  -0.44087  -0.42813  -0.42650  -0.42058
 Alpha  occ. eigenvalues --   -0.41907  -0.41080  -0.40680  -0.39629  -0.39413
 Alpha  occ. eigenvalues --   -0.37063  -0.35848  -0.35039  -0.31585  -0.29368
 Alpha  occ. eigenvalues --   -0.28625  -0.26767  -0.26141  -0.25828  -0.25424
 Alpha  occ. eigenvalues --   -0.23743
 Alpha virt. eigenvalues --   -0.11365  -0.06160  -0.02396  -0.01451   0.01282
 Alpha virt. eigenvalues --    0.02820   0.08201   0.08844   0.10574   0.10972
 Alpha virt. eigenvalues --    0.13580   0.13676   0.14267   0.15999   0.16066

 Mulliken charges:
               1
     1  O   -0.329952
     2  C    0.402813
     3  C   -0.190632
     4  C   -0.151735
     5  C    0.347705
     6  O   -0.319451
     7  C    0.101712
     8  C    0.178193
     9  C   -0.221945
    10  C   -0.105775
    11  C   -0.221880
    12  C    0.275536
    13  C   -0.155281
    14  C   -0.126439
    15  C   -0.022816
    16  N   -0.349739
    17  C    0.182900
    18  C   -0.325032
    19  H    0.130131
    20  H    0.130871
    21  H    0.107079
    22  H    0.107771
    23  H    0.103488
    24  H    0.109024
    25  H    0.107564
    26  H    0.112973
    27  H    0.122917
 Sum of Mulliken charges =  -0.00000

 Dipole moment (field-independent basis, Debye):
    X=              3.1140    Y=              0.2190    Z=              0.1037  Tot=              3.1234
 Quadrupole moment (field-independent basis, Debye-Ang):
   XX=            -92.1635   YY=            -91.3363   ZZ=           -107.8559
   XY=              5.6888   XZ=             -9.4333   YZ=              5.3214

  Exact polarizability: 234.257 -10.849 180.169  16.323   3.554 103.985
 Approx polarizability: 377.675 -42.936 330.318  63.296  -3.849 207.421

                      1                      2                      3
                      A                      A                      A
 Frequencies --     39.3589                62.3712                67.7582
 Red. masses --      7.6354                 4.8587                 6.1471
 Frc consts  --      0.0070                 0.0111                 0.0166
 IR Inten    --      0.3316                 3.8073                 1.1492

                      4                      5                      6
                      A                      A                      A
 Frequencies --    105.8285               163.1361               181.4264
 Red. masses --      9.8642                 4.9011                 4.5913
 Frc consts  --      0.0651                 0.0768                 0.0890
 IR Inten    --      5.5936                 0.0774                 1.9705

                      7                      8                      9
                      A                      A                      A
 Frequencies --    193.6532               244.2785               272.1012
 Red. masses --      6.1136                 7.4065                 5.0770
 Frc consts  --      0.1351                 0.2604                 0.2215
 IR Inten    --      2.3162                 0.4370                 2.8774

                     10                     11                     12
                      A                      A                      A
 Frequencies --    284.5679               386.9861               422.0629
 Red. masses --      4.4395                 4.3720                 8.4998
 Frc consts  --      0.2118                 0.3858                 0.8921
 IR Inten    --      1.0163                 1.3227                23.2829

                     13                     14                     15
                      A                      A                      A
 Frequencies --    434.7363               457.4835               474.6471
 Red. masses --      4.5471                 6.5241                 4.7378
 Frc consts  --      0.5063                 0.8045                 0.6289
 IR Inten    --      0.5497                 5.9024                 1.0921

                     16                     17                     18
                      A                      A                      A
 Frequencies --    484.8600               507.8326               537.4257
 Red. masses --      3.5279                 5.2662                 5.7754
 Frc consts  --      0.4886                 0.8002                 0.9828
 IR Inten    --      0.1446                 7.1793                 0.4747

                     19                     20                     21
                      A                      A                      A
 Frequencies --    546.0375               580.7098               620.6048
 Red. masses --      4.6991                 5.2740                 5.1568
 Frc consts  --      0.8255                 1.0479                 1.1702
 IR Inten    --      1.4598                 2.1924                 5.0675

                     22                     23                     24
                      A                      A                      A
 Frequencies --    638.9446               664.9486               679.0822
 Red. masses --      3.2412                 5.8644                 3.7225
 Frc consts  --      0.7796                 1.5278                 1.0114
 IR Inten    --      0.3536                 3.5068                 3.1226

                     25                     26                     27
                      A                      A                      A
 Frequencies --    776.1245               784.3959               794.2980
 Red. masses --      1.6048                 6.3376                 2.5275
 Frc consts  --      0.5695                 2.2974                 0.9395
 IR Inten    --      3.3171                 0.4010                 3.3603

                     28                     29                     30
                      A                      A                      A
 Frequencies --    809.1099               823.5209               827.1963
 Red. masses --      2.7495                 2.8792                 2.2448
 Frc consts  --      1.0605                 1.1505                 0.9050
 IR Inten    --      5.7473                20.0661                27.0678

                     31                     32                     33
                      A                      A                      A
 Frequencies --    861.9130               877.0099               881.0808
 Red. masses --      2.8211                 3.2729                 4.4012
 Frc consts  --      1.2348                 1.4832                 2.0130
 IR Inten    --      4.1513                15.6831                 8.2072

                     34                     35                     36
                      A                      A                      A
 Frequencies --    928.5273               948.5574               963.7928
 Red. masses --      1.4408                 1.5851                 3.0498
 Frc consts  --      0.7319                 0.8403                 1.6691
 IR Inten    --      2.2416                27.9427                21.3030

                     37                     38                     39
                      A                      A                      A
 Frequencies --    969.7767               977.0314               996.5987
 Red. masses --      1.4251                 1.4152                 1.3535
 Frc consts  --      0.7897                 0.7960                 0.7920
 IR Inten    --      5.4535                 0.2134                 0.6377

                     40                     41                     42
                      A                      A                      A
 Frequencies --   1023.6670              1050.9486              1072.6654
 Red. masses --      1.2767                 2.8898                 2.4669
 Frc consts  --      0.7882                 1.8805                 1.6724
 IR Inten    --      0.5211                 0.4518                25.6932

                     43                     44                     45
                      A                      A                      A
 Frequencies --   1093.6612              1121.5361              1160.3173
 Red. masses --      1.9269                 1.7671                 1.2617
 Frc consts  --      1.3579                 1.3096                 1.0009
 IR Inten    --     16.4665                25.2307                 3.8666

                     46                     47                     48
                      A                      A                      A
 Frequencies --   1189.5642              1214.9398              1238.8400
 Red. masses --      1.3900                 1.5453                 2.3151
 Frc consts  --      1.1589                 1.3439                 2.0934
 IR Inten    --      2.0206                 1.2332                 2.2612

                     49                     50                     51
                      A                      A                      A
 Frequencies --   1268.3365              1279.8709              1289.6255
 Red. masses --      1.8708                 2.0125                 3.0444
 Frc consts  --      1.7731                 1.9423                 2.9831
 IR Inten    --      0.3384                35.1150                97.9661

                     52                     53                     54
                      A                      A                      A
 Frequencies --   1336.0129              1361.5062              1383.7907
 Red. masses --      2.9101                 2.7070                 2.1209
 Frc consts  --      3.0604                 2.9565                 2.3928
 IR Inten    --     22.3168                 8.8876                 2.1893

                     55                     56                     57
                      A                      A                      A
 Frequencies --   1389.2793              1420.2712              1456.5615
 Red. masses --      4.6716                 2.2660                 2.0429
 Frc consts  --      5.3124                 2.6931                 2.5536
 IR Inten    --      5.7793                10.1075                 1.9024

                     58                     59                     60
                      A                      A                      A
 Frequencies --   1500.5614              1530.0594              1607.8002
 Red. masses --      2.8581                 3.8538                 7.3593
 Frc consts  --      3.7917                 5.3156                11.2085
 IR Inten    --      4.6590                28.4818                23.4987

                     61                     62                     63
                      A                      A                      A
 Frequencies --   1638.1499              1648.7126              1651.1078
 Red. masses --      5.3459                 6.4887                 8.4996
 Frc consts  --      8.4524                10.3919                13.6521
 IR Inten    --      8.2359                11.4036                49.9776

                     64                     65                     66
                      A                      A                      A
 Frequencies --   1688.2697              1742.4559              1752.7627
 Red. masses --      8.5301                10.3859                12.1177
 Frc consts  --     14.3247                18.5789                21.9340
 IR Inten    --      0.9789               128.7739               232.8020

                     67                     68                     69
                      A                      A                      A
 Frequencies --   3144.0500              3169.6701              3172.4372
 Red. masses --      1.0887                 1.0868                 1.0876
 Frc consts  --      6.3409                 6.4329                 6.4494
 IR Inten    --     22.2165                 0.0624                 8.6649

                     70                     71                     72
                      A                      A                      A
 Frequencies --   3181.0292              3182.2772              3184.9313
 Red. masses --      1.0859                 1.0898                 1.0913
 Frc consts  --      6.4738                 6.5025                 6.5223
 IR Inten    --      1.8749                12.9481                 1.7071

                     73                     74                     75
                      A                      A                      A
 Frequencies --   3198.2297              3200.4382              3200.5619
 Red. masses --      1.0961                 1.0977                 1.0976
 Frc consts  --      6.6059                 6.6244                 6.6244
 IR Inten    --     17.9441                16.7072                 6.3421

 - Thermochemistry -
 -------------------
 Temperature   298.150 Kelvin.  Pressure   1.00000 Atm.
 Atom     1 has atomic number  8 and mass  15.99491

 Molecular mass:   235.06333 amu.
 Principal axes and moments of inertia in atomic units:
                           1         2         3
     Eigenvalues --  2165.710666112.942717063.59734
           X            0.99996   0.00644  -0.00540
           Y           -0.00633   0.99979   0.01969
           Z            0.00552  -0.01965   0.99979
 This molecule is an asymmetric top.
 Rotational symmetry number  1.
 Warning -- assumption of classical behavior for rotation
           may cause significant error
 Rotational temperatures (Kelvin)      0.03999     0.01417     0.01226
 Rotational constants (GHZ):           0.83333     0.29523     0.25550
 Zero-point vibrational energy     526444.7 (Joules/Mol)
                                  125.82329 (Kcal/Mol)
 Warning -- explicit consideration of  21 degrees of freedom as
           vibrations may cause significant error
 Vibrational temperatures:     56.63    89.74    97.49   152.26   234.72
          (Kelvin)            261.03   278.62   351.46   391.49   409.43
                              556.79   607.25   625.49   658.22   682.91
                              697.61   730.66   773.24   785.63   835.51
                              892.91   919.30   956.71   977.05  1116.67
                             1128.57  1142.82  1164.13  1184.86  1190.15
                             1240.10  1261.82  1267.68  1335.94  1364.76
                             1386.68  1395.29  1405.73  1433.88  1472.83
                             1512.08  1543.33  1573.53  1613.64  1669.44
                             1711.52  1748.03  1782.41  1824.85  1841.45
                             1855.48  1922.22  1958.90  1990.97  1998.86
                             2043.45  2095.67  2158.97  2201.41  2313.27
                             2356.93  2372.13  2375.58  2429.04  2507.01
                             2521.83  4523.59  4560.45  4564.43  4576.79
                             4578.59  4582.41  4601.54  4604.72  4604.89

 Zero-point correction=                           0.200512 (Hartree/Particle)
 Thermal correction to Energy=                    0.213865
 Thermal correction to Enthalpy=                  0.214809
 Thermal correction to Gibbs Free Energy=         0.159654
 Sum of electronic and zero-point Energies=           -782.035712
 Sum of electronic and thermal Energies=              -782.022359
 Sum of electronic and thermal Enthalpies=            -782.021415
 Sum of electronic and thermal Free Energies=         -782.076569

                     E (Thermal)             CV                S
                      KCal/Mol        Cal/Mol-Kelvin    Cal/Mol-Kelvin
 Total                  134.202             53.127            116.083
 Electronic               0.000              0.000              0.000
 Translational            0.889              2.981             42.266
 Rotational               0.889              2.981             32.903
 Vibrational            132.425             47.166             40.914
 Vibration     1          0.594              1.981              5.291
 Vibration     2          0.597              1.972              4.381
 Vibration     3          0.598              1.970              4.217
 Vibration     4          0.605              1.945              3.344
 Vibration     5          0.623              1.888              2.513
 Vibration     6          0.630              1.865              2.314
 Vibration     7          0.635              1.849              2.193
 Vibration     8          0.660              1.772              1.772
 Vibration     9          0.675              1.725              1.583
 Vibration    10          0.683              1.702              1.506
 Vibration    11          0.755              1.498              1.012
 Vibration    12          0.784              1.422              0.885
 Vibration    13          0.795              1.395              0.843
 Vibration    14          0.816              1.344              0.773
 Vibration    15          0.831              1.306              0.725
 Vibration    16          0.841              1.284              0.697
 Vibration    17          0.863              1.233              0.639
 Vibration    18          0.892              1.167              0.571
 Vibration    19          0.901              1.148              0.552
 Vibration    20          0.937              1.073              0.484
 Vibration    21          0.981              0.988              0.416

 Optimization completed.
    -- Stationary point found.
 Normal termination of Gaussian 16 at Mon May 15 19:27:44 2023.
