 Gaussian 16, Revision A.03,
 Gaussian 16:  ES64L-G16RevA.03 25-Dec-2016

 -----------------------------
 # opt freq b3lyp/6-31g(2df,p)
 -----------------------------

 -------------------
 Title Card Required
 -------------------
 Symbolic Z-matrix:
 Charge =  0 Multiplicity = 1

 SCF Done:  E(RB3LYP) =  -610.545393469     A.U. after   15 cycles
 SCF Done:  E(RB3LYP) =  -610.536510289     A.U. after   13 cycles
 SCF Done:  E(RB3LYP) =  -610.558162012     A.U. after   12 cycles
 SCF Done:  E(RB3LYP) =  -610.557198193     A.U. after   14 cycles
 SCF Done:  E(RB3LYP) =  -610.561498086     A.U. after   12 cycles
 SCF Done:  E(RB3LYP) =  -610.561171932     A.U. after   13 cycles
 SCF Done:  E(RB3LYP) =  -610.560675366     A.U. after   12 cycles
 SCF Done:  E(RB3LYP) =  -610.560048141     A.U. after   11 cycles
 SCF Done:  E(RB3LYP) =  -610.561612975     A.U. after    9 cycles
 SCF Done:  E(RB3LYP) =  -610.562202144     A.U. after   12 cycles
 SCF Done:  E(RB3LYP) =  -610.569534176     A.U. after    9 cycles
 SCF Done:  E(RB3LYP) =  -610.569534646     A.U. after    8 cycles
 SCF Done:  E(RB3LYP) =  -610.569534762     A.U. after    7 cycles
 SCF Done:  E(RB3LYP) =  -610.569534956     A.U. after    7 cycles
 SCF Done:  E(RB3LYP) =  -610.569535170     A.U. after    7 cycles
 SCF Done:  E(RB3LYP) =  -610.569535380     A.U. after    7 cycles
 SCF Done:  E(RB3LYP) =  -610.569535559     A.U. after    8 cycles
 SCF Done:  E(RB3LYP) =  -610.569535792     A.U. after    7 cycles
 SCF Done:  E(RB3LYP) =  -610.569535824     A.U. after    7 cycles
 Optimization completed.
    -- Stationary point found.
 Normal termination of Gaussian 16 at Mon May 15 17:05:58 2023.

 ----------------------------------------------------------------------
 #N Geom=AllCheck Guess=TCheck SCRF=Check GenChk RB3LYP/6-31G(2df,p) Fr
 eq
 ----------------------------------------------------------------------

 Structure from the checkpoint file:  "OdC1CCdCCdC1CqOrdCqOrO.chk"
 -------------------
 Title Card Required
 -------------------
 Charge =  0 Multiplicity = 1

                         Standard orientation:
 ---------------------------------------------------------------------
 Center     Atomic      Atomic             Coordinates (Angstroms)
 Number     Number       Type             X           Y           Z
 ---------------------------------------------------------------------
      1          8           0        0.299610   -2.039925    0.053589
      2          6           0        0.947586   -0.989238    0.036005
      3          6           0        2.462002   -1.121957    0.075509
      4          6           0        3.273273    0.124372   -0.005695
      5          6           0        2.654308    1.312829   -0.090255
      6          6           0        1.220625    1.421576   -0.093652
      7          6           0        0.344933    0.355988   -0.018530
      8          6           0       -1.081715    0.589427    0.019092
      9          8           0       -1.478092    1.945919    0.041539
     10          6           0       -2.163525   -0.265437   -0.027213
     11          8           0       -2.172557   -1.570334   -0.107395
     12          8           0       -3.400120    0.241764   -0.007064
     13          1           0        2.730402   -1.821296   -0.728782
     14          1           0        2.695091   -1.679101    0.995342
     15          1           0        4.353911    0.035574    0.007971
     16          1           0        3.227104    2.232363   -0.156028
     17          1           0        0.796530    2.414486   -0.182673
     18          1           0       -1.239283    2.317444    0.901374
     19          1           0       -1.219568   -1.890266   -0.053789
     20          1           0       -3.279828    1.206036   -0.000339
 ---------------------------------------------------------------------

 SCF Done:  E(RB3LYP) =  -610.569535824     A.U. after    1 cycles

 The electronic state is 1-A.
 Alpha  occ. eigenvalues --  -19.17241 -19.17102 -19.15629 -19.14757 -10.30032
 Alpha  occ. eigenvalues --  -10.28961 -10.22259 -10.21212 -10.20982 -10.19966
 Alpha  occ. eigenvalues --  -10.19891 -10.19623  -1.10635  -1.05944  -1.04705
 Alpha  occ. eigenvalues --   -1.02399  -0.85225  -0.78519  -0.74444  -0.71245
 Alpha  occ. eigenvalues --   -0.64484  -0.62375  -0.59830  -0.54519  -0.53789
 Alpha  occ. eigenvalues --   -0.51231  -0.48872  -0.47621  -0.46803  -0.45640
 Alpha  occ. eigenvalues --   -0.44354  -0.42901  -0.41231  -0.40218  -0.38709
 Alpha  occ. eigenvalues --   -0.38207  -0.36571  -0.36096  -0.33548  -0.32343
 Alpha  occ. eigenvalues --   -0.32019  -0.27210  -0.26376  -0.18113
 Alpha virt. eigenvalues --   -0.07738  -0.00206   0.05167   0.06501   0.09427
 Alpha virt. eigenvalues --    0.11597   0.12719   0.13385   0.14777   0.16306
 Alpha virt. eigenvalues --    0.18211   0.18423   0.19540   0.20878   0.23722

 Mulliken charges:
               1
     1  O   -0.405416
     2  C    0.315265
     3  C   -0.364670
     4  C   -0.118474
     5  C   -0.051771
     6  C   -0.201904
     7  C    0.085694
     8  C   -0.013083
     9  O   -0.459350
    10  C    0.381424
    11  O   -0.388989
    12  O   -0.363810
    13  H    0.161388
    14  H    0.160630
    15  H    0.104993
    16  H    0.096507
    17  H    0.104832
    18  H    0.293940
    19  H    0.355517
    20  H    0.307276
 Sum of Mulliken charges =  -0.00000

 Dipole moment (field-independent basis, Debye):
    X=              3.3708    Y=              2.4730    Z=              1.2663  Tot=              4.3683
 Quadrupole moment (field-independent basis, Debye-Ang):
   XX=            -67.0466   YY=            -66.6455   ZZ=            -67.1646
   XY=             -7.1211   XZ=             -1.6547   YZ=              2.9797

  Exact polarizability: 182.413  11.476 109.231  -0.496   0.058  49.397
 Approx polarizability: 333.113  53.321 203.018  -0.211  -1.133  81.736

                      1                      2                      3
                      A                      A                      A
 Frequencies --     45.4169                64.7307               108.6550
 Red. masses --      3.0541                 5.6219                 4.1623
 Frc consts  --      0.0037                 0.0139                 0.0290
 IR Inten    --      3.0567                 0.7984                 1.7185

                      4                      5                      6
                      A                      A                      A
 Frequencies --    192.2122               242.0285               281.9663
 Red. masses --      4.2806                 5.5725                 4.1818
 Frc consts  --      0.0932                 0.1923                 0.1959
 IR Inten    --      0.3076                 0.4477                 4.5286

                      7                      8                      9
                      A                      A                      A
 Frequencies --    301.1545               347.0810               370.2004
 Red. masses --      6.3835                 3.0279                 1.5299
 Frc consts  --      0.3411                 0.2149                 0.1235
 IR Inten    --      1.4514                 6.2066                10.5928

                     10                     11                     12
                      A                      A                      A
 Frequencies --    411.6383               433.6766               481.6431
 Red. masses --      5.9117                 3.1578                 2.8760
 Frc consts  --      0.5902                 0.3499                 0.3931
 IR Inten    --      6.5334                 5.4220                 3.5077

                     13                     14                     15
                      A                      A                      A
 Frequencies --    516.0153               568.1086               578.9926
 Red. masses --      7.2881                 7.1356                 5.8193
 Frc consts  --      1.1434                 1.3569                 1.1494
 IR Inten    --      5.5718                18.1643                 5.0261

                     16                     17                     18
                      A                      A                      A
 Frequencies --    608.5818               634.0883               679.7797
 Red. masses --      6.2801                 2.8653                 1.7023
 Frc consts  --      1.3704                 0.6788                 0.4635
 IR Inten    --      2.3465                 4.6034                25.2134

                     19                     20                     21
                      A                      A                      A
 Frequencies --    702.6514               711.2326               722.8553
 Red. masses --      2.7774                 5.0739                 1.3077
 Frc consts  --      0.8079                 1.5122                 0.4026
 IR Inten    --     72.1713                34.0919                15.4572

                     22                     23                     24
                      A                      A                      A
 Frequencies --    822.7352               916.0908               933.8670
 Red. masses --      6.5806                 2.0901                 1.7809
 Frc consts  --      2.6244                 1.0335                 0.9151
 IR Inten    --     94.9437                 3.4829                 3.2414

                     25                     26                     27
                      A                      A                      A
 Frequencies --    963.5049               965.5882               989.9901
 Red. masses --      1.1299                 4.3269                 1.2818
 Frc consts  --      0.6180                 2.3769                 0.7402
 IR Inten    --     87.5421                34.7170                 0.4370

                     28                     29                     30
                      A                      A                      A
 Frequencies --   1004.4996              1044.0901              1114.2368
 Red. masses --      2.1739                 3.2795                 3.0392
 Frc consts  --      1.2924                 2.1063                 2.2231
 IR Inten    --      1.5559                25.6331                49.9601

                     31                     32                     33
                      A                      A                      A
 Frequencies --   1175.5925              1187.8551              1199.9357
 Red. masses --      1.4432                 1.1445                 1.9175
 Frc consts  --      1.1752                 0.9515                 1.6267
 IR Inten    --      3.0797                 3.2098                24.3085

                     34                     35                     36
                      A                      A                      A
 Frequencies --   1242.0773              1316.7831              1322.9675
 Red. masses --      1.2871                 2.1706                 1.4830
 Frc consts  --      1.1700                 2.2175                 1.5293
 IR Inten    --     32.8636                84.3318               146.9239

                     37                     38                     39
                      A                      A                      A
 Frequencies --   1334.2735              1387.3554              1397.6448
 Red. masses --      1.9192                 2.5520                 1.2300
 Frc consts  --      2.0131                 2.8940                 1.4156
 IR Inten    --    125.5988                79.3833                 3.4666

                     40                     41                     42
                      A                      A                      A
 Frequencies --   1423.6853              1445.9126              1528.1349
 Red. masses --      1.8247                 2.4618                 3.2206
 Frc consts  --      2.1790                 3.0325                 4.4310
 IR Inten    --     38.2986                45.7773                 3.0029

                     43                     44                     45
                      A                      A                      A
 Frequencies --   1569.2767              1661.1450              1677.1640
 Red. masses --      3.5708                 3.7123                 4.0563
 Frc consts  --      5.1810                 6.0355                 6.7225
 IR Inten    --    210.7452                64.4742               765.7203

                     46                     47                     48
                      A                      A                      A
 Frequencies --   1693.9821              2963.9548              3012.0265
 Red. masses --      8.7785                 1.0789                 1.0647
 Frc consts  --     14.8419                 5.5846                 5.6908
 IR Inten    --    658.8276               571.2872                 4.7218

                     49                     50                     51
                      A                      A                      A
 Frequencies --   3036.4380              3172.3989              3194.2271
 Red. masses --      1.0928                 1.0843                 1.0938
 Frc consts  --      5.9364                 6.4292                 6.5755
 IR Inten    --      1.0616                12.7081                16.3842

                     52                     53                     54
                      A                      A                      A
 Frequencies --   3205.2734              3686.0125              3730.5355
 Red. masses --      1.0914                 1.0631                 1.0665
 Frc consts  --      6.6063                 8.5105                 8.7446
 IR Inten    --      7.2031                92.0081                13.7330

 - Thermochemistry -
 -------------------
 Temperature   298.150 Kelvin.  Pressure   1.00000 Atm.
 Atom     1 has atomic number  8 and mass  15.99491

 Molecular mass:   168.04226 amu.
 Principal axes and moments of inertia in atomic units:
                           1         2         3
     Eigenvalues --   987.222592658.787423624.81001
           X            0.99995  -0.00976  -0.00128
           Y            0.00977   0.99994   0.00395
           Z            0.00124  -0.00396   0.99999
 This molecule is an asymmetric top.
 Rotational symmetry number  1.
 Warning -- assumption of classical behavior for rotation
           may cause significant error
 Rotational temperatures (Kelvin)      0.08773     0.03258     0.02389
 Rotational constants (GHZ):           1.82810     0.67878     0.49789
 Zero-point vibrational energy     396693.4 (Joules/Mol)
                                   94.81201 (Kcal/Mol)
 Warning -- explicit consideration of  16 degrees of freedom as
           vibrations may cause significant error
 Vibrational temperatures:     65.34    93.13   156.33   276.55   348.22
          (Kelvin)            405.69   433.29   499.37   532.64   592.26
                              623.96   692.98   742.43   817.38   833.04
                              875.61   912.31   978.05  1010.96  1023.31
                             1040.03  1183.73  1318.05  1343.63  1386.27
                             1389.27  1424.37  1445.25  1502.21  1603.14
                             1691.42  1709.06  1726.44  1787.07  1894.56
                             1903.46  1919.72  1996.09  2010.90  2048.37
                             2080.35  2198.65  2257.84  2390.02  2413.06
                             2437.26  4264.47  4333.63  4368.76  4564.37
                             4595.78  4611.67  5303.35  5367.41

 Zero-point correction=                           0.151093 (Hartree/Particle)
 Thermal correction to Energy=                    0.161573
 Thermal correction to Enthalpy=                  0.162517
 Thermal correction to Gibbs Free Energy=         0.114461
 Sum of electronic and zero-point Energies=           -610.418443
 Sum of electronic and thermal Energies=              -610.407963
 Sum of electronic and thermal Enthalpies=            -610.407019
 Sum of electronic and thermal Free Energies=         -610.455075

                     E (Thermal)             CV                S
                      KCal/Mol        Cal/Mol-Kelvin    Cal/Mol-Kelvin
 Total                  101.388             40.381            101.142
 Electronic               0.000              0.000              0.000
 Translational            0.889              2.981             41.265
 Rotational               0.889              2.981             30.632
 Vibrational             99.611             34.420             29.245
 Vibration     1          0.595              1.979              5.008
 Vibration     2          0.597              1.971              4.308
 Vibration     3          0.606              1.942              3.293
 Vibration     4          0.634              1.851              2.206
 Vibration     5          0.658              1.776              1.788
 Vibration     6          0.681              1.707              1.522
 Vibration     7          0.693              1.672              1.410
 Vibration     8          0.725              1.581              1.179
 Vibration     9          0.742              1.533              1.079
 Vibration    10          0.776              1.445              0.921
 Vibration    11          0.794              1.397              0.847
 Vibration    12          0.838              1.291              0.706
 Vibration    13          0.871              1.215              0.619
 Vibration    14          0.924              1.100              0.508
 Vibration    15          0.936              1.077              0.487
 Vibration    16          0.967              1.014              0.435

 Optimization completed.
    -- Stationary point found.
 Normal termination of Gaussian 16 at Mon May 15 17:52:25 2023.
