 Gaussian 16, Revision A.03,
 Gaussian 16:  ES64L-G16RevA.03 25-Dec-2016

 -----------------------------
 # opt freq b3lyp/6-31g(2df,p)
 -----------------------------

 -------------------
 Title Card Required
 -------------------
 Symbolic Z-matrix:
 Charge =  0 Multiplicity = 1

 SCF Done:  E(RB3LYP) =  -1101.65861907     A.U. after   15 cycles
 SCF Done:  E(RB3LYP) =  -1101.66719112     A.U. after   13 cycles
 SCF Done:  E(RB3LYP) =  -1101.67007375     A.U. after   12 cycles
 SCF Done:  E(RB3LYP) =  -1101.67078894     A.U. after   13 cycles
 SCF Done:  E(RB3LYP) =  -1101.67217327     A.U. after   11 cycles
 SCF Done:  E(RB3LYP) =  -1101.67310882     A.U. after   12 cycles
 SCF Done:  E(RB3LYP) =  -1101.67352417     A.U. after   12 cycles
 SCF Done:  E(RB3LYP) =  -1101.67355464     A.U. after   11 cycles
 SCF Done:  E(RB3LYP) =  -1101.67364255     A.U. after   11 cycles
 SCF Done:  E(RB3LYP) =  -1101.67366037     A.U. after   10 cycles
 SCF Done:  E(RB3LYP) =  -1101.68163253     A.U. after   13 cycles
 SCF Done:  E(RB3LYP) =  -1101.68392860     A.U. after   13 cycles
 SCF Done:  E(RB3LYP) =  -1101.68544941     A.U. after   13 cycles
 SCF Done:  E(RB3LYP) =  -1101.68743336     A.U. after   13 cycles
 SCF Done:  E(RB3LYP) =  -1101.68797950     A.U. after   12 cycles
 SCF Done:  E(RB3LYP) =  -1101.68808635     A.U. after   12 cycles
 SCF Done:  E(RB3LYP) =  -1101.68813809     A.U. after   11 cycles
 SCF Done:  E(RB3LYP) =  -1101.68814150     A.U. after    8 cycles
 SCF Done:  E(RB3LYP) =  -1101.68814203     A.U. after    8 cycles
 Optimization completed.
    -- Stationary point found.
 Normal termination of Gaussian 16 at Mon May 15 22:20:30 2023.

 ----------------------------------------------------------------------
 #N Geom=AllCheck Guess=TCheck SCRF=Check GenChk RB3LYP/6-31G(2df,p) Fr
 eq
 ----------------------------------------------------------------------

 Structure from the checkpoint file:  "OdC1CSCqdOrCS1.chk"
 -------------------
 Title Card Required
 -------------------
 Charge =  0 Multiplicity = 1

                         Standard orientation:
 ---------------------------------------------------------------------
 Center     Atomic      Atomic             Coordinates (Angstroms)
 Number     Number       Type             X           Y           Z
 ---------------------------------------------------------------------
      1          8           0       -2.673578   -0.512766   -0.471242
      2          6           0       -1.590268   -0.249528   -0.028146
      3          6           0       -0.687421   -1.267706    0.655391
      4         16           0        0.951959   -1.428947   -0.142749
      5          6           0        1.590150    0.249629   -0.028017
      6          8           0        2.673512    0.512028   -0.471569
      7          6           0        0.687641    1.268079    0.655723
      8         16           0       -0.951924    1.429131   -0.143025
      9          1           0       -1.164905   -2.245854    0.578385
     10          1           0       -0.567454   -1.019732    1.713927
     11          1           0        1.165253    2.246155    0.578943
     12          1           0        0.566461    1.019568    1.713905
 ---------------------------------------------------------------------

 SCF Done:  E(RB3LYP) =  -1101.68814203     A.U. after    1 cycles

 The electronic state is 1-A.
 Alpha  occ. eigenvalues --  -88.91407 -88.91406 -19.16259 -19.16256 -10.32045
 Alpha  occ. eigenvalues --  -10.32044 -10.25778 -10.25771  -7.97794  -7.97793
 Alpha  occ. eigenvalues --   -5.94248  -5.94246  -5.93862  -5.93860  -5.93394
 Alpha  occ. eigenvalues --   -5.93392  -1.07848  -1.07728  -0.86217  -0.80520
 Alpha  occ. eigenvalues --   -0.74706  -0.68954  -0.58817  -0.53072  -0.51840
 Alpha  occ. eigenvalues --   -0.50370  -0.48440  -0.46011  -0.45571  -0.42425
 Alpha  occ. eigenvalues --   -0.41759  -0.41648  -0.36963  -0.36469  -0.29402
 Alpha  occ. eigenvalues --   -0.29196  -0.26899  -0.26399
 Alpha virt. eigenvalues --   -0.05177  -0.04105   0.00167   0.01497   0.04643
 Alpha virt. eigenvalues --    0.06764   0.06898   0.08709   0.12708   0.16092
 Alpha virt. eigenvalues --    0.16756   0.19163   0.23175   0.23458   0.24498

 Mulliken charges:
               1
     1  O   -0.280815
     2  C    0.358552
     3  C   -0.333647
     4  S   -0.080893
     5  C    0.358682
     6  O   -0.280914
     7  C   -0.333686
     8  S   -0.080970
     9  H    0.174281
    10  H    0.162521
    11  H    0.174312
    12  H    0.162576
 Sum of Mulliken charges =  -0.00000

 Dipole moment (field-independent basis, Debye):
    X=             -0.0002    Y=              0.0011    Z=              3.0819  Tot=              3.0819
 Quadrupole moment (field-independent basis, Debye-Ang):
   XX=            -74.0269   YY=            -56.4718   ZZ=            -57.8436
   XY=              1.7428   XZ=              0.0013   YZ=              0.0012

  Exact polarizability:  94.665   7.487  88.817  -0.002  -0.001  56.315
 Approx polarizability: 169.329  29.335 153.902  -0.005   0.000  97.774

                      1                      2                      3
                      A                      A                      A
 Frequencies --     75.0671               139.8984               182.8154
 Red. masses --     15.0683                 5.5072                 5.3133
 Frc consts  --      0.0500                 0.0635                 0.1046
 IR Inten    --      3.1987                 1.3932                 3.3327

                      4                      5                      6
                      A                      A                      A
 Frequencies --    277.4168               343.2256               380.2675
 Red. masses --      8.2818                 3.7420                 6.7994
 Frc consts  --      0.3755                 0.2597                 0.5793
 IR Inten    --      2.0194                 0.0175                 5.0602

                      7                      8                      9
                      A                      A                      A
 Frequencies --    436.3074               438.4719               545.8597
 Red. masses --      2.8560                 9.4707                 8.9805
 Frc consts  --      0.3203                 1.0728                 1.5766
 IR Inten    --      3.0719                 0.7797                 3.6718

                     10                     11                     12
                      A                      A                      A
 Frequencies --    572.6602               591.5453               670.7364
 Red. masses --     10.0698                 3.5893                 5.9775
 Frc consts  --      1.9456                 0.7400                 1.5844
 IR Inten    --     24.6543                 0.1437                51.5199

                     13                     14                     15
                      A                      A                      A
 Frequencies --    757.0109               761.5641               871.9210
 Red. masses --      4.8116                 5.0190                 2.0809
 Frc consts  --      1.6246                 1.7151                 0.9321
 IR Inten    --      8.5890                 0.1137                 1.6743

                     16                     17                     18
                      A                      A                      A
 Frequencies --    899.2208              1028.1171              1045.6252
 Red. masses --      2.0290                 2.8128                 2.8672
 Frc consts  --      0.9666                 1.7518                 1.8470
 IR Inten    --      2.3902               145.6097                 0.3875

                     19                     20                     21
                      A                      A                      A
 Frequencies --   1165.1341              1185.6409              1238.2401
 Red. masses --      1.2155                 1.3974                 1.3737
 Frc consts  --      0.9722                 1.1574                 1.2410
 IR Inten    --      2.3949                52.8358                 2.8081

                     22                     23                     24
                      A                      A                      A
 Frequencies --   1241.9751              1436.5149              1458.9707
 Red. masses --      1.2673                 1.0881                 1.0817
 Frc consts  --      1.1517                 1.3229                 1.3566
 IR Inten    --      3.4992                 6.1149                13.2282

                     25                     26                     27
                      A                      A                      A
 Frequencies --   1801.9723              1806.5668              3063.4267
 Red. masses --     12.7443                12.3722                 1.0609
 Frc consts  --     24.3816                23.7906                 5.8661
 IR Inten    --    565.3207                29.0571                 3.8794

                     28                     29                     30
                      A                      A                      A
 Frequencies --   3064.1048              3136.7243              3137.9122
 Red. masses --      1.0609                 1.1028                 1.1031
 Frc consts  --      5.8686                 6.3930                 6.3997
 IR Inten    --      3.3429                 0.0653                 0.0627

 - Thermochemistry -
 -------------------
 Temperature   298.150 Kelvin.  Pressure   1.00000 Atm.
 Atom     1 has atomic number  8 and mass  15.99491

 Molecular mass:   147.96527 amu.
 Principal axes and moments of inertia in atomic units:
                           1         2         3
     Eigenvalues --   772.407811383.637041976.03252
           X            0.99933   0.03670  -0.00000
           Y           -0.03670   0.99933   0.00001
           Z            0.00000  -0.00001   1.00000
 This molecule is an asymmetric top.
 Rotational symmetry number  1.
 Warning -- assumption of classical behavior for rotation
           may cause significant error
 Rotational temperatures (Kelvin)      0.11213     0.06260     0.04383
 Rotational constants (GHZ):           2.33651     1.30435     0.91332
 Zero-point vibrational energy     201899.2 (Joules/Mol)
                                   48.25507 (Kcal/Mol)
 Warning -- explicit consideration of  11 degrees of freedom as
           vibrations may cause significant error
 Vibrational temperatures:    108.00   201.28   263.03   399.14   493.83
          (Kelvin)            547.12   627.75   630.86   785.37   823.93
                              851.10   965.04  1089.17  1095.72  1254.50
                             1293.78  1479.23  1504.42  1676.37  1705.87
                             1781.55  1786.93  2066.82  2099.13  2592.64
                             2599.25  4407.59  4408.56  4513.05  4514.76

 Zero-point correction=                           0.076899 (Hartree/Particle)
 Thermal correction to Energy=                    0.084559
 Thermal correction to Enthalpy=                  0.085503
 Thermal correction to Gibbs Free Energy=         0.043883
 Sum of electronic and zero-point Energies=          -1101.611243
 Sum of electronic and thermal Energies=             -1101.603583
 Sum of electronic and thermal Enthalpies=           -1101.602639
 Sum of electronic and thermal Free Energies=        -1101.644259

                     E (Thermal)             CV                S
                      KCal/Mol        Cal/Mol-Kelvin    Cal/Mol-Kelvin
 Total                   53.062             27.665             87.598
 Electronic               0.000              0.000              0.000
 Translational            0.889              2.981             40.886
 Rotational               0.889              2.981             29.136
 Vibrational             51.284             21.703             17.575
 Vibration     1          0.599              1.966              4.016
 Vibration     2          0.615              1.913              2.805
 Vibration     3          0.630              1.863              2.299
 Vibration     4          0.678              1.715              1.550
 Vibration     5          0.722              1.589              1.197
 Vibration     6          0.750              1.512              1.038
 Vibration     7          0.797              1.391              0.838
 Vibration     8          0.799              1.386              0.831
 Vibration     9          0.901              1.149              0.553
 Vibration    10          0.929              1.090              0.499
 Vibration    11          0.949              1.050              0.464

                           ! Non-Optimized Parameters !
 Normal termination of Gaussian 16 at Mon May 15 22:35:40 2023.
