 Gaussian 16, Revision A.03,
 Gaussian 16:  ES64L-G16RevA.03 25-Dec-2016

 -----------------------------
 # opt freq b3lyp/6-31g(2df,p)
 -----------------------------

 -------------------
 Title Card Required
 -------------------
 Symbolic Z-matrix:
 Charge =  0 Multiplicity = 1

 SCF Done:  E(RB3LYP) =  -436.873878248     A.U. after   14 cycles
 SCF Done:  E(RB3LYP) =  -436.878317350     A.U. after   13 cycles
 SCF Done:  E(RB3LYP) =  -436.878254634     A.U. after   13 cycles
 SCF Done:  E(RB3LYP) =  -436.879626695     A.U. after   13 cycles
 SCF Done:  E(RB3LYP) =  -436.879825706     A.U. after   12 cycles
 SCF Done:  E(RB3LYP) =  -436.879897315     A.U. after   12 cycles
 SCF Done:  E(RB3LYP) =  -436.879901234     A.U. after    9 cycles
 SCF Done:  E(RB3LYP) =  -436.879902281     A.U. after    8 cycles
 SCF Done:  E(RB3LYP) =  -436.879902434     A.U. after    7 cycles
 Optimization completed.
    -- Stationary point found.
 Normal termination of Gaussian 16 at Mon May 15 22:11:22 2023.

 ----------------------------------------------------------------------
 #N Geom=AllCheck Guess=TCheck SCRF=Check GenChk RB3LYP/6-31G(2df,p) Fr
 eq
 ----------------------------------------------------------------------

 Structure from the checkpoint file:  "OdCqOrc1cccnc1.chk"
 -------------------
 Title Card Required
 -------------------
 Charge =  0 Multiplicity = 1

                         Standard orientation:
 ---------------------------------------------------------------------
 Center     Atomic      Atomic             Coordinates (Angstroms)
 Number     Number       Type             X           Y           Z
 ---------------------------------------------------------------------
      1          8           0       -2.299929    1.159079   -0.236327
      2          6           0       -1.717539    0.129823   -0.024106
      3          8           0       -2.412461   -1.008227    0.213714
      4          6           0       -0.222632    0.031212   -0.005127
      5          6           0        0.515042    1.213548    0.100849
      6          6           0        1.898991    1.140932    0.114091
      7          6           0        2.500318   -0.112988    0.007191
      8          7           0        1.816813   -1.252947   -0.119788
      9          6           0        0.486276   -1.166991   -0.125757
     10          1           0       -1.822093   -1.718891    0.489481
     11          1           0       -0.015768    2.155920    0.169732
     12          1           0        2.507305    2.033737    0.203014
     13          1           0        3.583506   -0.205813    0.019088
     14          1           0       -0.034260   -2.114351   -0.264745
 ---------------------------------------------------------------------

 SCF Done:  E(RB3LYP) =  -436.879902434     A.U. after    1 cycles

 The electronic state is 1-A.
 Alpha  occ. eigenvalues --  -19.19466 -19.13135 -14.34701 -10.32146 -10.24770
 Alpha  occ. eigenvalues --  -10.24182 -10.22501 -10.22441 -10.21562  -1.10789
 Alpha  occ. eigenvalues --   -1.02586  -0.96359  -0.82933  -0.78962  -0.67412
 Alpha  occ. eigenvalues --   -0.65157  -0.62168  -0.56988  -0.52366  -0.50633
 Alpha  occ. eigenvalues --   -0.46611  -0.45893  -0.44685  -0.41852  -0.41387
 Alpha  occ. eigenvalues --   -0.40602  -0.38024  -0.32807  -0.30571  -0.29227
 Alpha  occ. eigenvalues --   -0.28341  -0.26990
 Alpha virt. eigenvalues --   -0.06307  -0.04256   0.03817   0.05570   0.09661
 Alpha virt. eigenvalues --    0.14031   0.14259   0.15424   0.16972   0.21271
 Alpha virt. eigenvalues --    0.22042   0.26746   0.28052   0.28994   0.31842

 Mulliken charges:
               1
     1  O   -0.318466
     2  C    0.395822
     3  O   -0.374085
     4  C    0.064008
     5  C   -0.117882
     6  C   -0.122021
     7  C    0.016634
     8  N   -0.265885
     9  C   -0.074738
    10  H    0.306345
    11  H    0.144749
    12  H    0.117099
    13  H    0.123185
    14  H    0.105236
 Sum of Mulliken charges =  -0.00000

 Dipole moment (field-independent basis, Debye):
    X=              2.6974    Y=             -0.4842    Z=              0.8917  Tot=              2.8819
 Quadrupole moment (field-independent basis, Debye-Ang):
   XX=            -57.0852   YY=            -48.1212   ZZ=            -50.6448
   XY=              9.6982   XZ=             -0.8110   YZ=             -0.1085

  Exact polarizability:  98.466   0.907  80.176   0.932   1.130  34.481
 Approx polarizability: 156.804  -6.133 148.182   2.254   1.600  56.548

                      1                      2                      3
                      A                      A                      A
 Frequencies --     60.6615               155.8982               215.6692
 Red. masses --      5.7543                 4.9136                 6.0435
 Frc consts  --      0.0125                 0.0704                 0.1656
 IR Inten    --      9.3086                 4.6576                14.8094

                      4                      5                      6
                      A                      A                      A
 Frequencies --    379.4031               394.2657               425.0770
 Red. masses --      6.3049                 3.0186                 4.1508
 Frc consts  --      0.5347                 0.2765                 0.4419
 IR Inten    --      3.0454                 3.0670                12.4643

                      7                      8                      9
                      A                      A                      A
 Frequencies --    485.2085               514.2056               627.0079
 Red. masses --      1.3051                 3.9689                 7.7683
 Frc consts  --      0.1810                 0.6183                 1.7994
 IR Inten    --     69.7683                 7.5819                 3.0554

                     10                     11                     12
                      A                      A                      A
 Frequencies --    673.0023               728.7753               751.0264
 Red. masses --      7.5172                 2.7712                 2.6302
 Frc consts  --      2.0060                 0.8672                 0.8741
 IR Inten    --      8.2946                11.0703                30.0926

                     13                     14                     15
                      A                      A                      A
 Frequencies --    796.9203               861.0413               954.0369
 Red. masses --      7.5763                 1.8601                 1.4216
 Frc consts  --      2.8349                 0.8125                 0.7624
 IR Inten    --     12.5848                 3.8842                 0.4963

                     16                     17                     18
                      A                      A                      A
 Frequencies --   1001.1150              1022.9057              1036.2823
 Red. masses --      1.4458                 1.3807                 4.3409
 Frc consts  --      0.8537                 0.8512                 2.7465
 IR Inten    --      0.3991                 0.8230                12.5426

                     19                     20                     21
                      A                      A                      A
 Frequencies --   1060.6940              1119.7668              1133.3042
 Red. masses --      3.3592                 2.9987                 1.4116
 Frc consts  --      2.2268                 2.2153                 1.0682
 IR Inten    --      1.4328                28.7186                 6.5596

                     22                     23                     24
                      A                      A                      A
 Frequencies --   1209.2109              1244.2436              1301.7876
 Red. masses --      1.5216                 1.4640                 7.1102
 Frc consts  --      1.3109                 1.3354                 7.0993
 IR Inten    --     18.8926                27.7693                33.8558

                     25                     26                     27
                      A                      A                      A
 Frequencies --   1332.3459              1363.9225              1452.8483
 Red. masses --      3.2642                 1.3393                 2.1260
 Frc consts  --      3.4140                 1.4680                 2.6440
 IR Inten    --    401.0741                45.4437                23.9914

                     28                     29                     30
                      A                      A                      A
 Frequencies --   1512.1452              1608.4069              1629.9954
 Red. masses --      2.1907                 5.3595                 5.8689
 Frc consts  --      2.9513                 8.1689                 9.1872
 IR Inten    --      9.2375                 9.2558                45.0109

                     31                     32                     33
                      A                      A                      A
 Frequencies --   1846.5087              3121.2774              3161.5330
 Red. masses --     10.6818                 1.0885                 1.0892
 Frc consts  --     21.4584                 6.2479                 6.4141
 IR Inten    --    255.6427                28.2891                12.2927

                     34                     35                     36
                      A                      A                      A
 Frequencies --   3197.8975              3214.5942              3808.2710
 Red. masses --      1.0901                 1.0952                 1.0654
 Frc consts  --      6.5685                 6.6682                 9.1035
 IR Inten    --      6.6265                 3.5524                30.2503

 - Thermochemistry -
 -------------------
 Temperature   298.150 Kelvin.  Pressure   1.00000 Atm.
 Atom     1 has atomic number  8 and mass  15.99491

 Molecular mass:   123.03203 amu.
 Principal axes and moments of inertia in atomic units:
                           1         2         3
     Eigenvalues --   459.214101462.673871902.75673
           X            0.99964   0.02665  -0.00063
           Y           -0.02664   0.99964   0.00391
           Z            0.00073  -0.00389   0.99999
 This molecule is an asymmetric top.
 Rotational symmetry number  1.
 Warning -- assumption of classical behavior for rotation
           may cause significant error
 Rotational temperatures (Kelvin)      0.18861     0.05922     0.04552
 Rotational constants (GHZ):           3.93006     1.23386     0.94849
 Zero-point vibrational energy     271559.8 (Joules/Mol)
                                   64.90435 (Kcal/Mol)
 Warning -- explicit consideration of   8 degrees of freedom as
           vibrations may cause significant error
 Vibrational temperatures:     87.28   224.30   310.30   545.88   567.26
          (Kelvin)            611.59   698.11   739.83   902.12   968.30
                             1048.55  1080.56  1146.59  1238.85  1372.65
                             1440.38  1471.73  1490.98  1526.10  1611.09
                             1630.57  1739.78  1790.19  1872.98  1916.95
                             1962.38  2090.32  2175.64  2314.14  2345.20
                             2656.71  4490.82  4548.74  4601.06  4625.08
                             5479.25

 Zero-point correction=                           0.103432 (Hartree/Particle)
 Thermal correction to Energy=                    0.110531
 Thermal correction to Enthalpy=                  0.111475
 Thermal correction to Gibbs Free Energy=         0.071274
 Sum of electronic and zero-point Energies=           -436.776471
 Sum of electronic and thermal Energies=              -436.769371
 Sum of electronic and thermal Enthalpies=            -436.768427
 Sum of electronic and thermal Free Energies=         -436.808629

                     E (Thermal)             CV                S
                      KCal/Mol        Cal/Mol-Kelvin    Cal/Mol-Kelvin
 Total                   69.359             26.526             84.611
 Electronic               0.000              0.000              0.000
 Translational            0.889              2.981             40.336
 Rotational               0.889              2.981             28.637
 Vibrational             67.582             20.564             15.638
 Vibration     1          0.597              1.973              4.436
 Vibration     2          0.620              1.896              2.599
 Vibration     3          0.645              1.817              1.995
 Vibration     4          0.749              1.514              1.042
 Vibration     5          0.761              1.482              0.984
 Vibration     6          0.787              1.416              0.875
 Vibration     7          0.841              1.283              0.696
 Vibration     8          0.869              1.219              0.624

 Optimization completed.
    -- Stationary point found.
 Normal termination of Gaussian 16 at Mon May 15 22:34:07 2023.
