 Gaussian 16, Revision A.03,
 Gaussian 16:  ES64L-G16RevA.03 25-Dec-2016

 -----------------------------
 # opt freq b3lyp/6-31g(2df,p)
 -----------------------------

 -------------------
 Title Card Required
 -------------------
 Symbolic Z-matrix:
 Charge =  0 Multiplicity = 1

 SCF Done:  E(RB3LYP) =  -1292.65684838     A.U. after   14 cycles
 SCF Done:  E(RB3LYP) =  -1292.66576682     A.U. after   12 cycles
 SCF Done:  E(RB3LYP) =  -1292.66674162     A.U. after   11 cycles
 SCF Done:  E(RB3LYP) =  -1292.66687021     A.U. after   10 cycles
 SCF Done:  E(RB3LYP) =  -1292.66687766     A.U. after    8 cycles
 SCF Done:  E(RB3LYP) =  -1292.66686702     A.U. after    9 cycles
 SCF Done:  E(RB3LYP) =  -1292.66687690     A.U. after    8 cycles
 SCF Done:  E(RB3LYP) =  -1292.66687785     A.U. after    8 cycles
 SCF Done:  E(RB3LYP) =  -1292.66687840     A.U. after    8 cycles
 SCF Done:  E(RB3LYP) =  -1292.66687824     A.U. after    7 cycles
 SCF Done:  E(RB3LYP) =  -1292.67591842     A.U. after   10 cycles
 SCF Done:  E(RB3LYP) =  -1292.67592706     A.U. after   10 cycles
 SCF Done:  E(RB3LYP) =  -1292.67593232     A.U. after   11 cycles
 SCF Done:  E(RB3LYP) =  -1292.67593578     A.U. after   10 cycles
 SCF Done:  E(RB3LYP) =  -1292.67593813     A.U. after    9 cycles
 SCF Done:  E(RB3LYP) =  -1292.67593912     A.U. after   10 cycles
 SCF Done:  E(RB3LYP) =  -1292.67593922     A.U. after    8 cycles
 SCF Done:  E(RB3LYP) =  -1292.67593923     A.U. after    6 cycles
 SCF Done:  E(RB3LYP) =  -1292.67593923     A.U. after    7 cycles
 Optimization completed.
    -- Stationary point found.
 Normal termination of Gaussian 16 at Mon May 15 23:24:01 2023.

 ----------------------------------------------------------------------
 #N Geom=AllCheck Guess=TCheck SCRF=Check GenChk RB3LYP/6-31G(2df,p) Fr
 eq
 ----------------------------------------------------------------------

 Structure from the checkpoint file:  "OdCqOrCSCSCCqdOrO.chk"
 -------------------
 Title Card Required
 -------------------
 Charge =  0 Multiplicity = 1

                         Standard orientation:
 ---------------------------------------------------------------------
 Center     Atomic      Atomic             Coordinates (Angstroms)
 Number     Number       Type             X           Y           Z
 ---------------------------------------------------------------------
      1          8           0       -4.102800    1.655543   -0.233545
      2          6           0       -3.438566    0.745793    0.178731
      3          8           0       -2.978083    0.709928    1.438630
      4          6           0       -3.096347   -0.463731   -0.703026
      5         16           0       -1.596193   -1.395501   -0.244829
      6          6           0       -0.313221   -0.153116   -0.650675
      7         16           0        1.149159   -0.551027    0.367945
      8          6           0        2.367435    0.449004   -0.549814
      9          6           0        3.738422    0.284257    0.097234
     10          8           0        3.958833   -0.408972    1.046610
     11          8           0        4.731040    0.995062   -0.488714
     12          1           0       -2.428269   -0.086930    1.549398
     13          1           0       -3.063552   -0.133646   -1.742358
     14          1           0       -3.912630   -1.188912   -0.615641
     15          1           0       -0.691571    0.845036   -0.416276
     16          1           0       -0.067225   -0.215458   -1.713632
     17          1           0        2.083947    1.508090   -0.537571
     18          1           0        2.417637    0.125210   -1.596314
     19          1           0        4.395956    1.505318   -1.236019
 ---------------------------------------------------------------------

 SCF Done:  E(RB3LYP) =  -1292.67593923     A.U. after    1 cycles

 The electronic state is 1-A.
 Alpha  occ. eigenvalues --  -88.90977 -88.90039 -19.20770 -19.19211 -19.14588
 Alpha  occ. eigenvalues --  -19.13258 -10.33543 -10.32264 -10.26618 -10.25570
 Alpha  occ. eigenvalues --  -10.24831  -7.97263  -7.96277  -5.93751  -5.93393
 Alpha  occ. eigenvalues --   -5.92798  -5.92789  -5.92445  -5.91729  -1.12088
 Alpha  occ. eigenvalues --   -1.10851  -1.04055  -1.02696  -0.85334  -0.81555
 Alpha  occ. eigenvalues --   -0.75821  -0.68379  -0.63853  -0.62275  -0.61019
 Alpha  occ. eigenvalues --   -0.54118  -0.53222  -0.50443  -0.49170  -0.48163
 Alpha  occ. eigenvalues --   -0.47487  -0.45713  -0.44614  -0.43248  -0.42394
 Alpha  occ. eigenvalues --   -0.41059  -0.38715  -0.37204  -0.36190  -0.34446
 Alpha  occ. eigenvalues --   -0.33691  -0.32290  -0.29403  -0.29027  -0.25916
 Alpha  occ. eigenvalues --   -0.25018
 Alpha virt. eigenvalues --   -0.01405  -0.00746   0.00109   0.01022   0.02882
 Alpha virt. eigenvalues --    0.04888   0.06340   0.08072   0.08884   0.11069
 Alpha virt. eigenvalues --    0.11979   0.12495   0.13821   0.14769   0.16953

 Mulliken charges:
               1
     1  O   -0.309574
     2  C    0.393023
     3  O   -0.355387
     4  C   -0.338910
     5  S   -0.127787
     6  C   -0.229902
     7  S   -0.043614
     8  C   -0.388918
     9  C    0.450777
    10  O   -0.272852
    11  O   -0.366645
    12  H    0.323707
    13  H    0.163923
    14  H    0.175509
    15  H    0.162722
    16  H    0.149697
    17  H    0.154711
    18  H    0.153309
    19  H    0.306211
 Sum of Mulliken charges =   0.00000

 Dipole moment (field-independent basis, Debye):
    X=              0.5736    Y=              0.4687    Z=             -4.5196  Tot=              4.5799
 Quadrupole moment (field-independent basis, Debye-Ang):
   XX=            -95.6086   YY=            -81.9092   ZZ=            -75.6129
   XY=             20.5546   XZ=            -11.0488   YZ=             -2.9080

  Exact polarizability: 139.527   1.106  88.907   3.150  -7.449  85.021
 Approx polarizability: 178.507  -4.196 150.932   8.147 -21.793 148.301

                      1                      2                      3
                      A                      A                      A
 Frequencies --     15.8492                21.6783                48.0874
 Red. masses --      6.7177                 8.1260                 8.9978
 Frc consts  --      0.0010                 0.0022                 0.0123
 IR Inten    --      5.4331                 6.8478                 6.2103

                      4                      5                      6
                      A                      A                      A
 Frequencies --     58.0098                74.1045                91.1786
 Red. masses --      8.4466                 3.7309                 5.6694
 Frc consts  --      0.0167                 0.0121                 0.0278
 IR Inten    --      4.3206                 2.9825                 2.3811

                      7                      8                      9
                      A                      A                      A
 Frequencies --    109.9756               167.9997               216.6070
 Red. masses --      2.8027                 4.2472                 7.8425
 Frc consts  --      0.0200                 0.0706                 0.2168
 IR Inten    --      1.4172                14.8307                 1.4209

                     10                     11                     12
                      A                      A                      A
 Frequencies --    235.9309               281.4447               403.8843
 Red. masses --      9.4643                 4.3763                 6.9829
 Frc consts  --      0.3104                 0.2042                 0.6711
 IR Inten    --      7.8222                 6.5290                 1.9621

                     13                     14                     15
                      A                      A                      A
 Frequencies --    430.1890               458.1310               537.3269
 Red. masses --      8.6492                 1.2727                 2.8011
 Frc consts  --      0.9431                 0.1574                 0.4765
 IR Inten    --      4.1817                83.4825                13.0221

                     16                     17                     18
                      A                      A                      A
 Frequencies --    574.6414               629.0411               631.0834
 Red. masses --      1.8925                 4.9407                 6.1817
 Frc consts  --      0.3682                 1.1518                 1.4505
 IR Inten    --      5.3813                 1.8933                12.6026

                     19                     20                     21
                      A                      A                      A
 Frequencies --    679.9400               724.3408               749.7610
 Red. masses --      1.1795                 4.3276                 6.2079
 Frc consts  --      0.3213                 1.3378                 2.0561
 IR Inten    --     79.7431                 1.5747                 0.9264

                     22                     23                     24
                      A                      A                      A
 Frequencies --    767.7456               812.4307               861.6268
 Red. masses --      5.2717                 4.9792                 2.6875
 Frc consts  --      1.8308                 1.9364                 1.1756
 IR Inten    --     10.8319                 3.2649                 6.1038

                     25                     26                     27
                      A                      A                      A
 Frequencies --    862.6840               882.2430               915.1513
 Red. masses --      1.9365                 4.0611                 2.3485
 Frc consts  --      0.8491                 1.8624                 1.1589
 IR Inten    --      6.0024                10.2464                 8.7573

                     28                     29                     30
                      A                      A                      A
 Frequencies --    921.9061              1104.7577              1142.4755
 Red. masses --      1.8299                 1.0273                 1.8643
 Frc consts  --      0.9163                 0.7387                 1.4337
 IR Inten    --      7.2343                 1.5617                70.7406

                     31                     32                     33
                      A                      A                      A
 Frequencies --   1155.8583              1165.0965              1214.5409
 Red. masses --      1.3433                 1.1615                 1.8698
 Frc consts  --      1.0574                 0.9289                 1.6250
 IR Inten    --      8.7787                 0.3100                 2.4546

                     34                     35                     36
                      A                      A                      A
 Frequencies --   1223.1134              1250.0659              1268.1829
 Red. masses --      1.1888                 1.3362                 1.2814
 Frc consts  --      1.0478                 1.2302                 1.2142
 IR Inten    --     68.0138                14.7843               190.9768

                     37                     38                     39
                      A                      A                      A
 Frequencies --   1327.5481              1358.3093              1432.5899
 Red. masses --      2.4719                 1.8596                 1.0769
 Frc consts  --      2.5668                 2.0215                 1.3022
 IR Inten    --    296.0463               320.4938                 8.1844

                     40                     41                     42
                      A                      A                      A
 Frequencies --   1448.9334              1461.5184              1868.1274
 Red. masses --      1.0983                 1.0848                10.2030
 Frc consts  --      1.3585                 1.3652                20.9792
 IR Inten    --     37.2639                 1.7071               313.0517

                     43                     44                     45
                      A                      A                      A
 Frequencies --   1877.4776              3023.9826              3045.2086
 Red. masses --     10.4891                 1.0563                 1.0528
 Frc consts  --     21.7840                 5.6910                 5.7521
 IR Inten    --    174.2689                18.8431                10.9986

                     46                     47                     48
                      A                      A                      A
 Frequencies --   3065.6941              3069.6587              3107.7957
 Red. masses --      1.0620                 1.1055                 1.1129
 Frc consts  --      5.8809                 6.1377                 6.3331
 IR Inten    --      1.7634                 4.3118                 3.7126

                     49                     50                     51
                      A                      A                      A
 Frequencies --   3130.8286              3616.5190              3798.3104
 Red. masses --      1.1014                 1.0654                 1.0660
 Frc consts  --      6.3610                 8.2099                 9.0610
 IR Inten    --      1.7869               158.0150                45.4554

 - Thermochemistry -
 -------------------
 Temperature   298.150 Kelvin.  Pressure   1.00000 Atm.
 Atom     1 has atomic number  8 and mass  15.99491

 Molecular mass:   195.98640 amu.
 Principal axes and moments of inertia in atomic units:
                           1         2         3
     Eigenvalues --   899.274246383.518966641.37036
           X            0.99995   0.00942  -0.00395
           Y           -0.00953   0.99952  -0.02955
           Z            0.00367   0.02958   0.99956
 This molecule is an asymmetric top.
 Rotational symmetry number  1.
 Warning -- assumption of classical behavior for rotation
           may cause significant error
 Rotational temperatures (Kelvin)      0.09632     0.01357     0.01304
 Rotational constants (GHZ):           2.00689     0.28272     0.27174
 Zero-point vibrational energy     354809.9 (Joules/Mol)
                                   84.80160 (Kcal/Mol)
 Warning -- explicit consideration of  16 degrees of freedom as
           vibrations may cause significant error
 Vibrational temperatures:     22.80    31.19    69.19    83.46   106.62
          (Kelvin)            131.19   158.23   241.71   311.65   339.45
                              404.94   581.10   618.95   659.15   773.09
                              826.78   905.05   907.99   978.28  1042.16
                             1078.74  1104.61  1168.91  1239.69  1241.21
                             1269.35  1316.70  1326.42  1589.50  1643.77
                             1663.02  1676.31  1747.45  1759.79  1798.57
                             1824.63  1910.05  1954.30  2061.18  2084.69
                             2102.80  2687.82  2701.27  4350.84  4381.38
                             4410.85  4416.55  4471.42  4504.56  5203.36
                             5464.92

 Zero-point correction=                           0.135140 (Hartree/Particle)
 Thermal correction to Energy=                    0.148235
 Thermal correction to Enthalpy=                  0.149179
 Thermal correction to Gibbs Free Energy=         0.091026
 Sum of electronic and zero-point Energies=          -1292.540799
 Sum of electronic and thermal Energies=             -1292.527704
 Sum of electronic and thermal Enthalpies=           -1292.526760
 Sum of electronic and thermal Free Energies=        -1292.584913

                     E (Thermal)             CV                S
                      KCal/Mol        Cal/Mol-Kelvin    Cal/Mol-Kelvin
 Total                   93.019             43.924            122.393
 Electronic               0.000              0.000              0.000
 Translational            0.889              2.981             41.724
 Rotational               0.889              2.981             32.011
 Vibrational             91.241             37.962             48.658
 Vibration     1          0.593              1.986              7.096
 Vibration     2          0.593              1.985              6.474
 Vibration     3          0.595              1.978              4.895
 Vibration     4          0.596              1.974              4.524
 Vibration     5          0.599              1.966              4.041
 Vibration     6          0.602              1.955              3.635
 Vibration     7          0.606              1.941              3.269
 Vibration     8          0.625              1.882              2.458
 Vibration     9          0.645              1.816              1.987
 Vibration    10          0.655              1.786              1.833
 Vibration    11          0.681              1.708              1.525
 Vibration    12          0.769              1.462              0.948
 Vibration    13          0.791              1.404              0.858
 Vibration    14          0.816              1.343              0.772
 Vibration    15          0.892              1.167              0.571
 Vibration    16          0.931              1.086              0.495

 Optimization completed.
    -- Stationary point found.
 Normal termination of Gaussian 16 at Mon May 15 23:53:12 2023.
