 Gaussian 16, Revision A.03,
 Gaussian 16:  ES64L-G16RevA.03 25-Dec-2016

 -----------------------------
 # opt freq b3lyp/6-31g(2df,p)
 -----------------------------

 -------------------
 Title Card Required
 -------------------
 Symbolic Z-matrix:
 Charge =  0 Multiplicity = 1

 SCF Done:  E(RB3LYP) =  -854.887429902     A.U. after   15 cycles
 SCF Done:  E(RB3LYP) =  -854.897736104     A.U. after   13 cycles
 SCF Done:  E(RB3LYP) =  -854.900344455     A.U. after   12 cycles
 SCF Done:  E(RB3LYP) =  -854.901354775     A.U. after   12 cycles
 SCF Done:  E(RB3LYP) =  -854.902020652     A.U. after   12 cycles
 SCF Done:  E(RB3LYP) =  -854.902143607     A.U. after   11 cycles
 SCF Done:  E(RB3LYP) =  -854.902199437     A.U. after   10 cycles
 SCF Done:  E(RB3LYP) =  -854.902203787     A.U. after    8 cycles
 SCF Done:  E(RB3LYP) =  -854.902204596     A.U. after    8 cycles
 Optimization completed.
    -- Stationary point found.
 Normal termination of Gaussian 16 at Mon May 15 19:54:23 2023.

 ----------------------------------------------------------------------
 #N Geom=AllCheck Guess=TCheck SCRF=Check GenChk RB3LYP/6-31G(2df,p) Fr
 eq
 ----------------------------------------------------------------------

 Structure from the checkpoint file:  "OdS1Oc2ccccc2O1.chk"
 -------------------
 Title Card Required
 -------------------
 Charge =  0 Multiplicity = 1

                         Standard orientation:
 ---------------------------------------------------------------------
 Center     Atomic      Atomic             Coordinates (Angstroms)
 Number     Number       Type             X           Y           Z
 ---------------------------------------------------------------------
      1          8           0       -2.497812   -0.000053    1.121263
      2         16           0       -2.033119    0.000019   -0.244415
      3          8           0       -0.868699    1.211903   -0.399993
      4          6           0        0.389915    0.694519   -0.173805
      5          6           0        1.548101    1.420940    0.018564
      6          6           0        2.731186    0.696569    0.204702
      7          6           0        2.731183   -0.696585    0.204745
      8          6           0        1.548091   -1.420933    0.018611
      9          6           0        0.389909   -0.694496   -0.173850
     10          8           0       -0.868624   -1.211899   -0.400142
     11          1           0        1.529902    2.503470    0.019784
     12          1           0        3.660513    1.234305    0.354000
     13          1           0        3.660501   -1.234311    0.354131
     14          1           0        1.529759   -2.503463    0.019897
 ---------------------------------------------------------------------

 SCF Done:  E(RB3LYP) =  -854.902204596     A.U. after    1 cycles

 The electronic state is 1-A.
 Alpha  occ. eigenvalues --  -89.07565 -19.21032 -19.21031 -19.16148 -10.26025
 Alpha  occ. eigenvalues --  -10.25967 -10.20586 -10.20585 -10.20081 -10.20026
 Alpha  occ. eigenvalues --   -8.10951  -6.07556  -6.07369  -6.06700  -1.15217
 Alpha  occ. eigenvalues --   -1.05537  -1.05536  -0.87072  -0.76773  -0.76656
 Alpha  occ. eigenvalues --   -0.68164  -0.63892  -0.63644  -0.54514  -0.53024
 Alpha  occ. eigenvalues --   -0.51027  -0.49482  -0.46186  -0.45825  -0.42963
 Alpha  occ. eigenvalues --   -0.42392  -0.40948  -0.39164  -0.37949  -0.36616
 Alpha  occ. eigenvalues --   -0.34905  -0.34662  -0.30167  -0.26071  -0.23809
 Alpha virt. eigenvalues --   -0.03451  -0.01499  -0.00158   0.02895   0.07429
 Alpha virt. eigenvalues --    0.08489   0.13347   0.14751   0.15417   0.16759
 Alpha virt. eigenvalues --    0.17225   0.21460   0.23998   0.26338   0.27574

 Mulliken charges:
               1
     1  O   -0.216659
     2  S    0.417229
     3  O   -0.299037
     4  C    0.309633
     5  C   -0.240669
     6  C   -0.100112
     7  C   -0.100125
     8  C   -0.240658
     9  C    0.309666
    10  O   -0.299089
    11  H    0.122811
    12  H    0.107099
    13  H    0.107102
    14  H    0.122808
 Sum of Mulliken charges =  -0.00000

 Dipole moment (field-independent basis, Debye):
    X=              2.1385    Y=              0.0002    Z=             -1.1628  Tot=              2.4342
 Quadrupole moment (field-independent basis, Debye-Ang):
   XX=            -58.5271   YY=            -58.2932   ZZ=            -65.5211
   XY=             -0.0001   XZ=              4.7826   YZ=             -0.0004

  Exact polarizability: 120.257   0.000  85.599   2.993  -0.001  46.338
 Approx polarizability: 184.384   0.000 161.389   3.319  -0.000  84.336

                      1                      2                      3
                      A                      A                      A
 Frequencies --     89.4052               183.0710               276.0037
 Red. masses --      9.9895                 5.8594                 6.5319
 Frc consts  --      0.0470                 0.1157                 0.2932
 IR Inten    --      1.0796                 0.2063                 0.8802

                      4                      5                      6
                      A                      A                      A
 Frequencies --    310.6830               370.7496               413.3687
 Red. masses --      9.6346                 9.6998                 6.7812
 Frc consts  --      0.5479                 0.7856                 0.6827
 IR Inten    --      0.0290                17.5159                 9.2727

                      7                      8                      9
                      A                      A                      A
 Frequencies --    444.0549               532.3924               563.9111
 Red. masses --      4.0897                10.3683                 4.6082
 Frc consts  --      0.4751                 1.7315                 0.8634
 IR Inten    --      0.0966                17.4357                 3.1809

                     10                     11                     12
                      A                      A                      A
 Frequencies --    587.2096               631.8080               639.0395
 Red. masses --      9.9461                 7.8519                12.8277
 Frc consts  --      2.0206                 1.8467                 3.0864
 IR Inten    --     12.3022                24.2319                 2.2386

                     13                     14                     15
                      A                      A                      A
 Frequencies --    714.4319               744.1835               764.6284
 Red. masses --     10.8182                 4.9052                 1.2253
 Frc consts  --      3.2533                 1.6006                 0.4221
 IR Inten    --    124.7733                 0.3951                58.5855

                     16                     17                     18
                      A                      A                      A
 Frequencies --    836.8659               862.1270               872.4062
 Red. masses --      7.3077                 6.3984                 1.4305
 Frc consts  --      3.0154                 2.8020                 0.6415
 IR Inten    --    218.2536                 6.0495                 0.1697

                     19                     20                     21
                      A                      A                      A
 Frequencies --    921.7514               959.5035              1034.9383
 Red. masses --      1.3488                 1.2212                 1.9855
 Frc consts  --      0.6752                 0.6624                 1.2530
 IR Inten    --      4.1615                 0.0022                 7.9668

                     22                     23                     24
                      A                      A                      A
 Frequencies --   1114.4624              1175.3453              1177.1666
 Red. masses --      2.0319                 2.8821                 1.1085
 Frc consts  --      1.4869                 2.3458                 0.9050
 IR Inten    --      6.5497                 0.2245                 4.5479

                     25                     26                     27
                      A                      A                      A
 Frequencies --   1263.0078              1285.7731              1294.7411
 Red. masses --      4.7886                11.3333                 1.4748
 Frc consts  --      4.5006                11.0392                 1.4566
 IR Inten    --    343.4392                87.3448                 0.1329

                     28                     29                     30
                      A                      A                      A
 Frequencies --   1373.8669              1491.6448              1508.0116
 Red. masses --      5.7565                 2.4594                 2.9986
 Frc consts  --      6.4018                 3.2241                 4.0178
 IR Inten    --     15.5049                 4.0985               176.9203

                     31                     32                     33
                      A                      A                      A
 Frequencies --   1630.5445              1653.9174              3186.1095
 Red. masses --      7.3166                 7.5389                 1.0853
 Frc consts  --     11.4610                12.1503                 6.4910
 IR Inten    --      0.2250                 4.6806                 1.6720

                     34                     35                     36
                      A                      A                      A
 Frequencies --   3200.3242              3214.5913              3217.7338
 Red. masses --      1.0909                 1.0933                 1.0960
 Frc consts  --      6.5827                 6.6567                 6.6857
 IR Inten    --      9.8872                 4.2647                 1.9682

 - Thermochemistry -
 -------------------
 Temperature   298.150 Kelvin.  Pressure   1.00000 Atm.
 Atom     1 has atomic number  8 and mass  15.99491

 Molecular mass:   155.98812 amu.
 Principal axes and moments of inertia in atomic units:
                           1         2         3
     Eigenvalues --   583.799011987.181482363.04266
           X            0.99999   0.00000   0.00539
           Y           -0.00000   1.00000  -0.00000
           Z           -0.00539   0.00000   0.99999
 This molecule is an asymmetric top.
 Rotational symmetry number  1.
 Warning -- assumption of classical behavior for rotation
           may cause significant error
 Rotational temperatures (Kelvin)      0.14836     0.04359     0.03665
 Rotational constants (GHZ):           3.09137     0.90819     0.76374
 Zero-point vibrational energy     242481.7 (Joules/Mol)
                                   57.95452 (Kcal/Mol)
 Warning -- explicit consideration of  10 degrees of freedom as
           vibrations may cause significant error
 Vibrational temperatures:    128.63   263.40   397.11   447.00   533.43
          (Kelvin)            594.75   638.90   765.99   811.34   844.86
                              909.03   919.44  1027.91  1070.71  1100.13
                             1204.06  1240.41  1255.20  1326.19  1380.51
                             1489.05  1603.46  1691.06  1693.68  1817.19
                             1849.94  1862.84  1976.69  2146.14  2169.69
                             2345.99  2379.62  4584.10  4604.55  4625.08
                             4629.60

 Zero-point correction=                           0.092356 (Hartree/Particle)
 Thermal correction to Energy=                    0.099855
 Thermal correction to Enthalpy=                  0.100799
 Thermal correction to Gibbs Free Energy=         0.059755
 Sum of electronic and zero-point Energies=           -854.809848
 Sum of electronic and thermal Energies=              -854.802350
 Sum of electronic and thermal Enthalpies=            -854.801406
 Sum of electronic and thermal Free Energies=         -854.842450

                     E (Thermal)             CV                S
                      KCal/Mol        Cal/Mol-Kelvin    Cal/Mol-Kelvin
 Total                   62.660             29.480             86.384
 Electronic               0.000              0.000              0.000
 Translational            0.889              2.981             41.043
 Rotational               0.889              2.981             29.396
 Vibrational             60.882             23.519             15.945
 Vibration     1          0.602              1.957              3.673
 Vibration     2          0.631              1.863              2.297
 Vibration     3          0.678              1.718              1.558
 Vibration     4          0.700              1.653              1.359
 Vibration     5          0.743              1.532              1.077
 Vibration     6          0.777              1.441              0.915
 Vibration     7          0.804              1.374              0.814
 Vibration     8          0.887              1.178              0.582
 Vibration     9          0.920              1.109              0.516
 Vibration    10          0.944              1.059              0.472

 Optimization completed.
    -- Stationary point found.
 Normal termination of Gaussian 16 at Mon May 15 20:23:55 2023.
